 Entering Gaussian System, Link 0=g09
 Input=r-2-chlorobutane_rotated.inp
 Output=r-2-chlorobutane_rotated.log
 Initial command:
 /usr/local/g09/l1.exe /home/g09scr/Gau-2879.inp -scrdir=/home/g09scr/
 Entering Link 1 = /usr/local/g09/l1.exe PID=      2881.
  
 Copyright (c) 1988,1990,1992,1993,1995,1998,2003,2009,2010,
            Gaussian, Inc.  All Rights Reserved.
  
 This is part of the Gaussian(R) 09 program.  It is based on
 the Gaussian(R) 03 system (copyright 2003, Gaussian, Inc.),
 the Gaussian(R) 98 system (copyright 1998, Gaussian, Inc.),
 the Gaussian(R) 94 system (copyright 1995, Gaussian, Inc.),
 the Gaussian 92(TM) system (copyright 1992, Gaussian, Inc.),
 the Gaussian 90(TM) system (copyright 1990, Gaussian, Inc.),
 the Gaussian 88(TM) system (copyright 1988, Gaussian, Inc.),
 the Gaussian 86(TM) system (copyright 1986, Carnegie Mellon
 University), and the Gaussian 82(TM) system (copyright 1983,
 Carnegie Mellon University). Gaussian is a federally registered
 trademark of Gaussian, Inc.
  
 This software contains proprietary and confidential information,
 including trade secrets, belonging to Gaussian, Inc.
  
 This software is provided under written license and may be
 used, copied, transmitted, or stored only in accord with that
 written license.
  
 The following legend is applicable only to US Government
 contracts under FAR:
  
                    RESTRICTED RIGHTS LEGEND
  
 Use, reproduction and disclosure by the US Government is
 subject to restrictions as set forth in subparagraphs (a)
 and (c) of the Commercial Computer Software - Restricted
 Rights clause in FAR 52.227-19.
  
 Gaussian, Inc.
 340 Quinnipiac St., Bldg. 40, Wallingford CT 06492
  
  
 ---------------------------------------------------------------
 Warning -- This program may not be used in any manner that
 competes with the business of Gaussian, Inc. or will provide
 assistance to any competitor of Gaussian, Inc.  The licensee
 of this program is prohibited from giving any competitor of
 Gaussian, Inc. access to this program.  By using this program,
 the user acknowledges that Gaussian, Inc. is engaged in the
 business of creating and licensing software in the field of
 computational chemistry and represents and warrants to the
 licensee that it is not a competitor of Gaussian, Inc. and that
 it will not use this program in any manner prohibited above.
 ---------------------------------------------------------------
  

 Cite this work as:
 Gaussian 09, Revision B.01,
 M. J. Frisch, G. W. Trucks, H. B. Schlegel, G. E. Scuseria, 
 M. A. Robb, J. R. Cheeseman, G. Scalmani, V. Barone, B. Mennucci, 
 G. A. Petersson, H. Nakatsuji, M. Caricato, X. Li, H. P. Hratchian, 
 A. F. Izmaylov, J. Bloino, G. Zheng, J. L. Sonnenberg, M. Hada, 
 M. Ehara, K. Toyota, R. Fukuda, J. Hasegawa, M. Ishida, T. Nakajima, 
 Y. Honda, O. Kitao, H. Nakai, T. Vreven, J. A. Montgomery, Jr., 
 J. E. Peralta, F. Ogliaro, M. Bearpark, J. J. Heyd, E. Brothers, 
 K. N. Kudin, V. N. Staroverov, T. Keith, R. Kobayashi, J. Normand, 
 K. Raghavachari, A. Rendell, J. C. Burant, S. S. Iyengar, J. Tomasi, 
 M. Cossi, N. Rega, J. M. Millam, M. Klene, J. E. Knox, J. B. Cross, 
 V. Bakken, C. Adamo, J. Jaramillo, R. Gomperts, R. E. Stratmann, 
 O. Yazyev, A. J. Austin, R. Cammi, C. Pomelli, J. W. Ochterski, 
 R. L. Martin, K. Morokuma, V. G. Zakrzewski, G. A. Voth, 
 P. Salvador, J. J. Dannenberg, S. Dapprich, A. D. Daniels, 
 O. Farkas, J. B. Foresman, J. V. Ortiz, J. Cioslowski, 
 and D. J. Fox, Gaussian, Inc., Wallingford CT, 2010.
 
 ******************************************
 Gaussian 09:  EM64L-G09RevB.01 12-Aug-2010
                22-Jan-2018 
 ******************************************
 %nproc=4
 Will use up to    4 processors via shared memory.
 %mem=60gb
 ----------------------------
 #B3LYP/6-31G* fopt test freq
 ----------------------------
 1/14=-1,18=20,19=15,26=3,38=1/1,3;
 2/9=110,12=2,14=103,17=6,18=5,40=1/2;
 3/5=1,6=6,7=1,11=2,16=1,25=1,30=1,71=1,74=-5/1,2,3;
 4//1;
 5/5=2,38=5/2;
 6/7=2,8=2,9=2,10=2,28=1/1;
 7//1,2,3,16;
 1/14=-1,18=20,19=15/3(2);
 2/9=110/2;
 99//99;
 2/9=110/2;
 3/5=1,6=6,7=1,11=2,16=1,25=1,30=1,71=1,74=-5/1,2,3;
 4/5=5,16=3/1;
 5/5=2,38=5/2;
 7//1,2,3,16;
 1/14=-1,18=20,19=15/3(-5);
 2/9=110/2;
 6/7=2,8=2,9=2,10=2,19=2,28=1/1;
 99/9=1/99;
 --------------------------------------------------
 AsymmetricEnantiomers/r-2-chlorobutane_rotated.xyz
 --------------------------------------------------
 Symbolic Z-matrix:
 Charge =  0 Multiplicity = 1
 C                    -0.39545   0.37599   0.37613 
 C                    -0.42545   0.40099   1.92613 
 H                     0.08455   1.30399   2.29913 
 H                     0.08655  -0.48502   2.33313 
 H                    -1.46345   0.40999   2.29313 
 Cl                    1.29155   0.42299  -0.16187 
 H                    -0.89545   1.28099  -0.00587 
 C                    -1.11045  -0.88702  -0.17787 
 H                    -0.58345  -1.79001   0.17213 
 C                    -1.16945  -0.89502  -1.72787 
 H                    -2.14245  -0.91902   0.21213 
 H                    -0.15745  -0.91602  -2.16087 
 H                    -1.69345   0.00099  -2.09587 
 H                    -1.71345  -1.78701  -2.07887 
 

 GradGradGradGradGradGradGradGradGradGradGradGradGradGradGradGradGradGrad
 Berny optimization.
 Initialization pass.
                           ----------------------------
                           !    Initial Parameters    !
                           ! (Angstroms and Degrees)  !
 --------------------------                            --------------------------
 ! Name  Definition              Value          Derivative Info.                !
 --------------------------------------------------------------------------------
 ! R1    R(1,2)                  1.5505         estimate D2E/DX2                !
 ! R2    R(1,6)                  1.7713         estimate D2E/DX2                !
 ! R3    R(1,7)                  1.1023         estimate D2E/DX2                !
 ! R4    R(1,8)                  1.5535         estimate D2E/DX2                !
 ! R5    R(2,3)                  1.1021         estimate D2E/DX2                !
 ! R6    R(2,4)                  1.1013         estimate D2E/DX2                !
 ! R7    R(2,5)                  1.101          estimate D2E/DX2                !
 ! R8    R(8,9)                  1.1026         estimate D2E/DX2                !
 ! R9    R(8,10)                 1.5511         estimate D2E/DX2                !
 ! R10   R(8,11)                 1.1037         estimate D2E/DX2                !
 ! R11   R(10,12)                1.1009         estimate D2E/DX2                !
 ! R12   R(10,13)                1.1013         estimate D2E/DX2                !
 ! R13   R(10,14)                1.1022         estimate D2E/DX2                !
 ! A1    A(2,1,6)              108.7615         estimate D2E/DX2                !
 ! A2    A(2,1,7)              108.9315         estimate D2E/DX2                !
 ! A3    A(2,1,8)              111.1437         estimate D2E/DX2                !
 ! A4    A(6,1,7)              107.7566         estimate D2E/DX2                !
 ! A5    A(6,1,8)              110.5854         estimate D2E/DX2                !
 ! A6    A(7,1,8)              109.5818         estimate D2E/DX2                !
 ! A7    A(1,2,3)              110.0349         estimate D2E/DX2                !
 ! A8    A(1,2,4)              110.3338         estimate D2E/DX2                !
 ! A9    A(1,2,5)              110.5851         estimate D2E/DX2                !
 ! A10   A(3,2,4)              108.6003         estimate D2E/DX2                !
 ! A11   A(3,2,5)              108.4669         estimate D2E/DX2                !
 ! A12   A(4,2,5)              108.7657         estimate D2E/DX2                !
 ! A13   A(1,8,9)              109.43           estimate D2E/DX2                !
 ! A14   A(1,8,10)             112.2132         estimate D2E/DX2                !
 ! A15   A(1,8,11)             109.1424         estimate D2E/DX2                !
 ! A16   A(9,8,10)             109.3396         estimate D2E/DX2                !
 ! A17   A(9,8,11)             108.1204         estimate D2E/DX2                !
 ! A18   A(10,8,11)            108.5047         estimate D2E/DX2                !
 ! A19   A(8,10,12)            110.9862         estimate D2E/DX2                !
 ! A20   A(8,10,13)            110.3536         estimate D2E/DX2                !
 ! A21   A(8,10,14)            109.9484         estimate D2E/DX2                !
 ! A22   A(12,10,13)           108.7516         estimate D2E/DX2                !
 ! A23   A(12,10,14)           108.2406         estimate D2E/DX2                !
 ! A24   A(13,10,14)           108.4929         estimate D2E/DX2                !
 ! D1    D(6,1,2,3)             58.1174         estimate D2E/DX2                !
 ! D2    D(6,1,2,4)            -61.6981         estimate D2E/DX2                !
 ! D3    D(6,1,2,5)            177.9267         estimate D2E/DX2                !
 ! D4    D(7,1,2,3)            -59.0772         estimate D2E/DX2                !
 ! D5    D(7,1,2,4)           -178.8927         estimate D2E/DX2                !
 ! D6    D(7,1,2,5)             60.7321         estimate D2E/DX2                !
 ! D7    D(8,1,2,3)           -179.9106         estimate D2E/DX2                !
 ! D8    D(8,1,2,4)             60.2739         estimate D2E/DX2                !
 ! D9    D(8,1,2,5)            -60.1013         estimate D2E/DX2                !
 ! D10   D(2,1,8,9)            -61.8559         estimate D2E/DX2                !
 ! D11   D(2,1,8,10)           176.5858         estimate D2E/DX2                !
 ! D12   D(2,1,8,11)            56.2785         estimate D2E/DX2                !
 ! D13   D(6,1,8,9)             59.0494         estimate D2E/DX2                !
 ! D14   D(6,1,8,10)           -62.5089         estimate D2E/DX2                !
 ! D15   D(6,1,8,11)           177.1838         estimate D2E/DX2                !
 ! D16   D(7,1,8,9)            177.6942         estimate D2E/DX2                !
 ! D17   D(7,1,8,10)            56.1359         estimate D2E/DX2                !
 ! D18   D(7,1,8,11)           -64.1714         estimate D2E/DX2                !
 ! D19   D(1,8,10,12)           62.2318         estimate D2E/DX2                !
 ! D20   D(1,8,10,13)          -58.4011         estimate D2E/DX2                !
 ! D21   D(1,8,10,14)         -178.0412         estimate D2E/DX2                !
 ! D22   D(9,8,10,12)          -59.3782         estimate D2E/DX2                !
 ! D23   D(9,8,10,13)          179.9889         estimate D2E/DX2                !
 ! D24   D(9,8,10,14)           60.3488         estimate D2E/DX2                !
 ! D25   D(11,8,10,12)        -177.0917         estimate D2E/DX2                !
 ! D26   D(11,8,10,13)          62.2754         estimate D2E/DX2                !
 ! D27   D(11,8,10,14)         -57.3647         estimate D2E/DX2                !
 --------------------------------------------------------------------------------
 Trust Radius=3.00D-01 FncErr=1.00D-07 GrdErr=1.00D-06
 Number of steps in this run=     74 maximum allowed number of steps=    100.
 GradGradGradGradGradGradGradGradGradGradGradGradGradGradGradGradGradGrad

                          Input orientation:                          
 ---------------------------------------------------------------------
 Center     Atomic      Atomic             Coordinates (Angstroms)
 Number     Number       Type             X           Y           Z
 ---------------------------------------------------------------------
      1          6           0       -0.395447    0.375985    0.376133
      2          6           0       -0.425447    0.400985    1.926130
      3          1           0        0.084553    1.303990    2.299130
      4          1           0        0.086553   -0.485015    2.333130
      5          1           0       -1.463450    0.409985    2.293130
      6         17           0        1.291550    0.422985   -0.161867
      7          1           0       -0.895447    1.280990   -0.005867
      8          6           0       -1.110450   -0.887015   -0.177867
      9          1           0       -0.583447   -1.790010    0.172133
     10          6           0       -1.169450   -0.895015   -1.727870
     11          1           0       -2.142450   -0.919015    0.212133
     12          1           0       -0.157447   -0.916015   -2.160870
     13          1           0       -1.693450    0.000985   -2.095870
     14          1           0       -1.713450   -1.787010   -2.078870
 ---------------------------------------------------------------------
                    Distance matrix (angstroms):
                    1          2          3          4          5
     1  C    0.000000
     2  C    1.550489   0.000000
     3  H    2.188495   1.102110   0.000000
     4  H    2.191685   1.101267   1.789329   0.000000
     5  H    2.194690   1.101009   1.787622   1.790289   0.000000
     6  Cl   1.771331   2.703386   2.879152   2.915732   3.690150
     7  H    1.102251   2.174379   2.504784   3.090955   2.523225
     8  C    1.553485   2.560269   3.516255   2.810609   2.812942
     9  H    2.183688   2.811037   3.813552   2.611861   3.180096
    10  C    2.577082   3.947768   4.756561   4.270523   4.237676
    11  H    2.180812   2.761935   3.775824   3.107320   2.560826
    12  H    2.856973   4.302311   4.987844   4.521209   4.827218
    13  H    2.817132   4.236073   4.916822   4.797984   4.414012
    14  H    3.527424   4.741972   5.652785   4.939731   4.899354
                    6          7          8          9         10
     6  Cl   0.000000
     7  H    2.354456   0.000000
     8  C    2.736048   2.185419   0.000000
     9  H    2.919677   3.091936   1.102557   0.000000
    10  C    3.200939   2.788435   1.551146   2.180465   0.000000
    11  H    3.705833   2.538220   1.103697   1.786259   2.170465
    12  H    2.808652   3.164729   2.200308   2.527498   1.100945
    13  H    3.581714   2.577466   2.192526   3.095740   1.101280
    14  H    4.193925   3.791978   2.188016   2.518716   1.102176
                   11         12         13         14
    11  H    0.000000
    12  H    3.093766   0.000000
    13  H    2.524852   1.790089   0.000000
    14  H    2.487197   1.785077   1.788188   0.000000
 Stoichiometry    C4H9Cl
 Framework group  C1[X(C4H9Cl)]
 Deg. of freedom    36
 Full point group                 C1      NOp   1
 Largest Abelian subgroup         C1      NOp   1
 Largest concise Abelian subgroup C1      NOp   1
                         Standard orientation:                         
 ---------------------------------------------------------------------
 Center     Atomic      Atomic             Coordinates (Angstroms)
 Number     Number       Type             X           Y           Z
 ---------------------------------------------------------------------
      1          6           0       -0.295143    0.399468    0.374874
      2          6           0       -1.416034    1.397522   -0.014363
      3          1           0       -2.357076    1.123851    0.489810
      4          1           0       -1.582772    1.380274   -1.102797
      5          1           0       -1.144308    2.421277    0.286158
      6         17           0       -0.806766   -1.235615   -0.074969
      7          1           0       -0.161323    0.420814    1.468764
      8          6           0        1.045389    0.763141   -0.320849
      9          1           0        0.919799    0.700692   -1.414448
     10          6           0        2.205172   -0.169148    0.117094
     11          1           0        1.315615    1.802246   -0.065140
     12          1           0        2.000314   -1.213108   -0.166209
     13          1           0        2.345390   -0.119432    1.208278
     14          1           0        3.143078    0.142940   -0.370478
 ---------------------------------------------------------------------
 Rotational constants (GHZ):      4.6116145      3.1128914      2.0164987
 Standard basis: 6-31G(d) (6D, 7F)
 There are    97 symmetry adapted basis functions of A   symmetry.
 Integral buffers will be    131072 words long.
 Raffenetti 2 integral format.
 Two-electron integral symmetry is turned on.
    97 basis functions,   200 primitive gaussians,    97 cartesian basis functions
    25 alpha electrons       25 beta electrons
       nuclear repulsion energy       233.4964272963 Hartrees.
 NAtoms=   14 NActive=   14 NUniq=   14 SFac= 1.00D+00 NAtFMM=   50 NAOKFM=F Big=F
 One-electron integrals computed using PRISM.
 NBasis=    97 RedAO= T  NBF=    97
 NBsUse=    97 1.00D-06 NBFU=    97
 Harris functional with IExCor=  402 diagonalized for initial guess.
 ExpMin= 1.43D-01 ExpMax= 2.52D+04 ExpMxC= 3.78D+03 IAcc=1 IRadAn=         1 AccDes= 0.00D+00
 HarFok:  IExCor=  402 AccDes= 0.00D+00 IRadAn=         1 IDoV= 1
 ScaDFX=  1.000000  1.000000  1.000000  1.000000
 FoFCou: FMM=F IPFlag=           0 FMFlag=      100000 FMFlg1=           0
         NFxFlg=           0 DoJE=T BraDBF=F KetDBF=T FulRan=T
         Omega=  0.000000  0.000000  1.000000  0.000000  0.000000 ICntrl=     500 IOpCl=  0
         NMat0=    1 NMatS0=    1 NMatT0=    0 NMatD0=    1 NMtDS0=    0 NMtDT0=    0
         I1Cent=           4 NGrid=           0.
 Petite list used in FoFCou.
 Initial guess orbital symmetries:
       Occupied  (A) (A) (A) (A) (A) (A) (A) (A) (A) (A) (A) (A)
                 (A) (A) (A) (A) (A) (A) (A) (A) (A) (A) (A) (A)
                 (A)
       Virtual   (A) (A) (A) (A) (A) (A) (A) (A) (A) (A) (A) (A)
                 (A) (A) (A) (A) (A) (A) (A) (A) (A) (A) (A) (A)
                 (A) (A) (A) (A) (A) (A) (A) (A) (A) (A) (A) (A)
                 (A) (A) (A) (A) (A) (A) (A) (A) (A) (A) (A) (A)
                 (A) (A) (A) (A) (A) (A) (A) (A) (A) (A) (A) (A)
                 (A) (A) (A) (A) (A) (A) (A) (A) (A) (A) (A) (A)
 The electronic state of the initial guess is 1-A.
 Requested convergence on RMS density matrix=1.00D-08 within 128 cycles.
 Requested convergence on MAX density matrix=1.00D-06.
 Requested convergence on             energy=1.00D-06.
 No special actions if energy rises.
 Keep R1 ints in memory in canonical form, NReq=12379521.
 Integral accuracy reduced to 1.0D-05 until final iterations.
 Initial convergence to 1.0D-05 achieved.  Increase integral accuracy.
 SCF Done:  E(RB3LYP) =  -618.053928056     A.U. after   12 cycles
             Convg  =    0.7293D-08             -V/T =  2.0051

 **********************************************************************

            Population analysis using the SCF density.

 **********************************************************************

 Orbital symmetries:
       Occupied  (A) (A) (A) (A) (A) (A) (A) (A) (A) (A) (A) (A)
                 (A) (A) (A) (A) (A) (A) (A) (A) (A) (A) (A) (A)
                 (A)
       Virtual   (A) (A) (A) (A) (A) (A) (A) (A) (A) (A) (A) (A)
                 (A) (A) (A) (A) (A) (A) (A) (A) (A) (A) (A) (A)
                 (A) (A) (A) (A) (A) (A) (A) (A) (A) (A) (A) (A)
                 (A) (A) (A) (A) (A) (A) (A) (A) (A) (A) (A) (A)
                 (A) (A) (A) (A) (A) (A) (A) (A) (A) (A) (A) (A)
                 (A) (A) (A) (A) (A) (A) (A) (A) (A) (A) (A) (A)
 The electronic state is 1-A.
 Alpha  occ. eigenvalues -- -101.52747 -10.24910 -10.19705 -10.18995 -10.17907
 Alpha  occ. eigenvalues --   -9.44481  -7.20843  -7.19902  -7.19893  -0.86649
 Alpha  occ. eigenvalues --   -0.76430  -0.72433  -0.63455  -0.57723  -0.47831
 Alpha  occ. eigenvalues --   -0.44515  -0.43253  -0.42119  -0.38615  -0.37250
 Alpha  occ. eigenvalues --   -0.35414  -0.34645  -0.34217  -0.28978  -0.28765
 Alpha virt. eigenvalues --    0.04535   0.08848   0.11792   0.12316   0.15381
 Alpha virt. eigenvalues --    0.15956   0.17036   0.17542   0.17646   0.19144
 Alpha virt. eigenvalues --    0.21395   0.22250   0.23656   0.39939   0.44091
 Alpha virt. eigenvalues --    0.46285   0.48343   0.49362   0.51198   0.55009
 Alpha virt. eigenvalues --    0.56675   0.58655   0.61307   0.62434   0.64517
 Alpha virt. eigenvalues --    0.70517   0.73499   0.77426   0.82747   0.85309
 Alpha virt. eigenvalues --    0.87450   0.89039   0.89120   0.89826   0.91033
 Alpha virt. eigenvalues --    0.91820   0.92680   0.96386   0.96950   0.97786
 Alpha virt. eigenvalues --    0.99465   1.04368   1.10410   1.16555   1.37063
 Alpha virt. eigenvalues --    1.43809   1.44494   1.50369   1.62722   1.67604
 Alpha virt. eigenvalues --    1.83732   1.85069   1.86975   1.93435   1.96558
 Alpha virt. eigenvalues --    1.98478   2.04490   2.14728   2.21227   2.23614
 Alpha virt. eigenvalues --    2.27364   2.33248   2.36881   2.37417   2.51334
 Alpha virt. eigenvalues --    2.62707   2.71898   4.08117   4.21666   4.28222
 Alpha virt. eigenvalues --    4.36922   4.49669
          Condensed to atoms (all electrons):
              1          2          3          4          5          6
     1  C    5.090958   0.355019  -0.030771  -0.035321  -0.026470   0.237452
     2  C    0.355019   5.133021   0.372175   0.376545   0.358948  -0.069693
     3  H   -0.030771   0.372175   0.551625  -0.027769  -0.028394   0.000182
     4  H   -0.035321   0.376545  -0.027769   0.548010  -0.028009   0.000295
     5  H   -0.026470   0.358948  -0.028394  -0.028009   0.569843   0.005399
     6  Cl   0.237452  -0.069693   0.000182   0.000295   0.005399  17.013089
     7  H    0.371067  -0.043544  -0.003140   0.004886  -0.001461  -0.051496
     8  C    0.360202  -0.045807   0.004431  -0.005244  -0.002602  -0.065017
     9  H   -0.039775  -0.003863  -0.000059   0.004436  -0.000028  -0.000063
    10  C   -0.046090   0.004245  -0.000146   0.000014  -0.000038  -0.007994
    11  H   -0.031706  -0.003134  -0.000026  -0.000093   0.002888   0.005198
    12  H   -0.006353   0.000098   0.000003   0.000004  -0.000005   0.009210
    13  H   -0.004941   0.000046   0.000000   0.000007   0.000001  -0.000027
    14  H    0.004416  -0.000121   0.000002   0.000002  -0.000006   0.000024
              7          8          9         10         11         12
     1  C    0.371067   0.360202  -0.039775  -0.046090  -0.031706  -0.006353
     2  C   -0.043544  -0.045807  -0.003863   0.004245  -0.003134   0.000098
     3  H   -0.003140   0.004431  -0.000059  -0.000146  -0.000026   0.000003
     4  H    0.004886  -0.005244   0.004436   0.000014  -0.000093   0.000004
     5  H   -0.001461  -0.002602  -0.000028  -0.000038   0.002888  -0.000005
     6  Cl  -0.051496  -0.065017  -0.000063  -0.007994   0.005198   0.009210
     7  H    0.587733  -0.044732   0.005376  -0.003910  -0.001811  -0.000062
     8  C   -0.044732   5.031388   0.374685   0.369717   0.364679  -0.031604
     9  H    0.005376   0.374685   0.578265  -0.036364  -0.032910  -0.003707
    10  C   -0.003910   0.369717  -0.036364   5.078001  -0.037852   0.379798
    11  H   -0.001811   0.364679  -0.032910  -0.037852   0.593843   0.004499
    12  H   -0.000062  -0.031604  -0.003707   0.379798   0.004499   0.535969
    13  H    0.005173  -0.036499   0.004788   0.376505  -0.003440  -0.029147
    14  H   -0.000045  -0.028725  -0.002503   0.370947  -0.002819  -0.028393
             13         14
     1  C   -0.004941   0.004416
     2  C    0.000046  -0.000121
     3  H    0.000000   0.000002
     4  H    0.000007   0.000002
     5  H    0.000001  -0.000006
     6  Cl  -0.000027   0.000024
     7  H    0.005173  -0.000045
     8  C   -0.036499  -0.028725
     9  H    0.004788  -0.002503
    10  C    0.376505   0.370947
    11  H   -0.003440  -0.002819
    12  H   -0.029147  -0.028393
    13  H    0.575704  -0.029974
    14  H   -0.029974   0.573242
 Mulliken atomic charges:
              1
     1  C   -0.197688
     2  C   -0.433936
     3  H    0.161887
     4  H    0.162239
     5  H    0.149934
     6  Cl  -0.076559
     7  H    0.175966
     8  C   -0.244870
     9  H    0.151724
    10  C   -0.446833
    11  H    0.142684
    12  H    0.169690
    13  H    0.141804
    14  H    0.143956
 Sum of Mulliken atomic charges =   0.00000
 Mulliken charges with hydrogens summed into heavy atoms:
              1
     1  C   -0.021722
     2  C    0.040125
     6  Cl  -0.076559
     8  C    0.049539
    10  C    0.008617
 Sum of Mulliken charges with hydrogens summed into heavy atoms =   0.00000
 Electronic spatial extent (au):  <R**2>=            647.0191
 Charge=              0.0000 electrons
 Dipole moment (field-independent basis, Debye):
    X=              0.6454    Y=              1.8518    Z=              0.3569  Tot=              1.9932
 Quadrupole moment (field-independent basis, Debye-Ang):
   XX=            -39.8173   YY=            -40.1835   ZZ=            -38.9397
   XY=             -0.9682   XZ=             -0.3375   YZ=              0.3881
 Traceless Quadrupole moment (field-independent basis, Debye-Ang):
   XX=             -0.1704   YY=             -0.5367   ZZ=              0.7071
   XY=             -0.9682   XZ=             -0.3375   YZ=              0.3881
 Octapole moment (field-independent basis, Debye-Ang**2):
  XXX=             -3.2197  YYY=             -3.9069  ZZZ=              0.4822  XYY=             -0.7119
  XXY=              0.2201  XXZ=             -0.4651  XZZ=             -0.9538  YZZ=             -0.5758
  YYZ=             -0.5275  XYZ=             -0.1886
 Hexadecapole moment (field-independent basis, Debye-Ang**3):
 XXXX=           -481.9305 YYYY=           -296.1154 ZZZZ=            -78.3844 XXXY=              5.4078
 XXXZ=             -5.0695 YYYX=              7.2352 YYYZ=              5.2596 ZZZX=              1.4111
 ZZZY=             -0.3327 XXYY=           -132.3025 XXZZ=            -93.2733 YYZZ=            -66.2549
 XXYZ=              0.6454 YYXZ=              0.8105 ZZXY=              0.7296
 N-N= 2.334964272963D+02 E-N=-1.925069133280D+03  KE= 6.149365288153D+02
 Calling FoFJK, ICntrl=      2127 FMM=F ISym2X=0 I1Cent= 0 IOpClX= 0 NMat=1 NMatS=1 NMatT=0.
 ***** Axes restored to original set *****
 -------------------------------------------------------------------
 Center     Atomic                   Forces (Hartrees/Bohr)
 Number     Number              X              Y              Z
 -------------------------------------------------------------------
      1        6          -0.030119389   -0.010878362    0.020995243
      2        6           0.003184124    0.003613351   -0.005479479
      3        1          -0.002414097   -0.004701894   -0.000301264
      4        1          -0.002136838    0.003616077   -0.001348723
      5        1           0.002610325   -0.000254820   -0.002185910
      6       17           0.019428983    0.002886306   -0.007460958
      7        1           0.004344537   -0.003877718   -0.000661548
      8        6           0.004906277    0.006440099   -0.013585686
      9        1          -0.002347807    0.003884367    0.001079234
     10        6          -0.000934483   -0.003853805    0.006117685
     11        1           0.004912064    0.001587150    0.001782732
     12        1          -0.004993697    0.000554695    0.001317936
     13        1           0.001713447   -0.003177703   -0.000354605
     14        1           0.001846555    0.004162259    0.000085344
 -------------------------------------------------------------------
 Cartesian Forces:  Max     0.030119389 RMS     0.007669131

 GradGradGradGradGradGradGradGradGradGradGradGradGradGradGradGradGradGrad
 Berny optimization.
 Internal  Forces:  Max     0.020844920 RMS     0.003953938
 Search for a local minimum.
 Step number   1 out of a maximum of   74
 All quantities printed in internal units (Hartrees-Bohrs-Radians)
 Mixed Optimization -- RFO/linear search
 Second derivative matrix not updated -- first step.
 ITU=  0
     Eigenvalues ---    0.00230   0.00230   0.00230   0.03524   0.04362
     Eigenvalues ---    0.04792   0.05029   0.05480   0.05527   0.05590
     Eigenvalues ---    0.05594   0.08139   0.08996   0.12076   0.16000
     Eigenvalues ---    0.16000   0.16000   0.16000   0.16000   0.16000
     Eigenvalues ---    0.16516   0.21960   0.23267   0.27357   0.27554
     Eigenvalues ---    0.27610   0.28512   0.33277   0.33401   0.33434
     Eigenvalues ---    0.33443   0.33450   0.33541   0.33542   0.33571
     Eigenvalues ---    0.33578
 RFO step:  Lambda=-4.38246815D-03 EMin= 2.30000000D-03
 Linear search not attempted -- first point.
 Iteration  1 RMS(Cart)=  0.03834628 RMS(Int)=  0.00074501
 Iteration  2 RMS(Cart)=  0.00106352 RMS(Int)=  0.00026533
 Iteration  3 RMS(Cart)=  0.00000051 RMS(Int)=  0.00026533
 Variable       Old X    -DE/DX   Delta X   Delta X   Delta X     New X
                                 (Linear)    (Quad)   (Total)
    R1        2.93000  -0.00929   0.00000  -0.03314  -0.03314   2.89686
    R2        3.34733   0.02084   0.00000   0.07200   0.07200   3.41933
    R3        2.08295  -0.00493   0.00000  -0.01454  -0.01454   2.06841
    R4        2.93566  -0.00889   0.00000  -0.03199  -0.03199   2.90367
    R5        2.08269  -0.00507   0.00000  -0.01497  -0.01497   2.06771
    R6        2.08109  -0.00440   0.00000  -0.01295  -0.01295   2.06815
    R7        2.08060  -0.00319   0.00000  -0.00938  -0.00938   2.07123
    R8        2.08353  -0.00396   0.00000  -0.01170  -0.01170   2.07183
    R9        2.93124  -0.00705   0.00000  -0.02520  -0.02520   2.90604
   R10        2.08569  -0.00401   0.00000  -0.01190  -0.01190   2.07379
   R11        2.08048  -0.00512   0.00000  -0.01504  -0.01504   2.06544
   R12        2.08112  -0.00328   0.00000  -0.00965  -0.00965   2.07146
   R13        2.08281  -0.00431   0.00000  -0.01272  -0.01272   2.07009
    A1        1.89825   0.00010   0.00000   0.01172   0.01133   1.90958
    A2        1.90121   0.00021   0.00000   0.00288   0.00301   1.90422
    A3        1.93982   0.00207   0.00000   0.01989   0.01962   1.95944
    A4        1.88071  -0.00160   0.00000  -0.03454  -0.03449   1.84621
    A5        1.93008   0.00051   0.00000   0.01174   0.01130   1.94137
    A6        1.91256  -0.00139   0.00000  -0.01332  -0.01333   1.89923
    A7        1.92047   0.00257   0.00000   0.01809   0.01809   1.93856
    A8        1.92569   0.00032   0.00000   0.00136   0.00130   1.92699
    A9        1.93007  -0.00227   0.00000  -0.01567  -0.01566   1.91442
   A10        1.89543  -0.00105   0.00000  -0.00274  -0.00281   1.89262
   A11        1.89310  -0.00004   0.00000   0.00089   0.00096   1.89407
   A12        1.89832   0.00045   0.00000  -0.00195  -0.00200   1.89632
   A13        1.90991  -0.00321   0.00000  -0.01408  -0.01519   1.89472
   A14        1.95849   0.00847   0.00000   0.04357   0.04344   2.00193
   A15        1.90489  -0.00495   0.00000  -0.04128  -0.04165   1.86324
   A16        1.90834  -0.00089   0.00000   0.01725   0.01715   1.92548
   A17        1.88706   0.00084   0.00000  -0.01508  -0.01584   1.87122
   A18        1.89376  -0.00048   0.00000   0.00762   0.00829   1.90205
   A19        1.93708   0.00046   0.00000   0.00298   0.00296   1.94003
   A20        1.92603   0.00166   0.00000   0.00906   0.00904   1.93507
   A21        1.91896   0.00158   0.00000   0.01046   0.01041   1.92938
   A22        1.89807  -0.00131   0.00000  -0.00957  -0.00957   1.88850
   A23        1.88915  -0.00082   0.00000  -0.00303  -0.00306   1.88609
   A24        1.89356  -0.00169   0.00000  -0.01065  -0.01069   1.88287
    D1        1.01434  -0.00115   0.00000  -0.02303  -0.02309   0.99125
    D2       -1.07683  -0.00169   0.00000  -0.03201  -0.03211  -1.10894
    D3        3.10541  -0.00099   0.00000  -0.02028  -0.02041   3.08500
    D4       -1.03109   0.00060   0.00000   0.01009   0.01017  -1.02092
    D5       -3.12227   0.00006   0.00000   0.00111   0.00115  -3.12112
    D6        1.05997   0.00076   0.00000   0.01284   0.01285   1.07282
    D7       -3.14003   0.00088   0.00000   0.01223   0.01232  -3.12771
    D8        1.05198   0.00034   0.00000   0.00325   0.00330   1.05528
    D9       -1.04897   0.00104   0.00000   0.01499   0.01500  -1.03396
   D10       -1.07959   0.00135   0.00000  -0.01793  -0.01840  -1.09799
   D11        3.08200  -0.00091   0.00000  -0.05897  -0.05920   3.02280
   D12        0.98225  -0.00239   0.00000  -0.06855  -0.06817   0.91407
   D13        1.03061   0.00320   0.00000   0.01813   0.01783   1.04844
   D14       -1.09099   0.00094   0.00000  -0.02291  -0.02297  -1.11396
   D15        3.09244  -0.00054   0.00000  -0.03249  -0.03194   3.06050
   D16        3.10135   0.00068   0.00000  -0.02550  -0.02581   3.07553
   D17        0.97976  -0.00159   0.00000  -0.06654  -0.06662   0.91314
   D18       -1.12000  -0.00307   0.00000  -0.07612  -0.07559  -1.19559
   D19        1.08615   0.00053   0.00000   0.01177   0.01188   1.09803
   D20       -1.01929   0.00077   0.00000   0.01581   0.01594  -1.00335
   D21       -3.10740   0.00082   0.00000   0.01667   0.01679  -3.09061
   D22       -1.03635  -0.00040   0.00000  -0.01128  -0.01157  -1.04792
   D23        3.14140  -0.00016   0.00000  -0.00724  -0.00751   3.13389
   D24        1.05329  -0.00011   0.00000  -0.00638  -0.00666   1.04662
   D25       -3.09083  -0.00064   0.00000  -0.00724  -0.00709  -3.09792
   D26        1.08691  -0.00040   0.00000  -0.00320  -0.00303   1.08388
   D27       -1.00120  -0.00035   0.00000  -0.00234  -0.00218  -1.00338
         Item               Value     Threshold  Converged?
 Maximum Force            0.020845     0.000450     NO 
 RMS     Force            0.003954     0.000300     NO 
 Maximum Displacement     0.111951     0.001800     NO 
 RMS     Displacement     0.038225     0.001200     NO 
 Predicted change in Energy=-2.279452D-03
 GradGradGradGradGradGradGradGradGradGradGradGradGradGradGradGradGradGrad

                          Input orientation:                          
 ---------------------------------------------------------------------
 Center     Atomic      Atomic             Coordinates (Angstroms)
 Number     Number       Type             X           Y           Z
 ---------------------------------------------------------------------
      1          6           0       -0.376935    0.358329    0.388745
      2          6           0       -0.441928    0.399305    1.919772
      3          1           0        0.050046    1.295117    2.310573
      4          1           0        0.050542   -0.480056    2.346323
      5          1           0       -1.488628    0.407044    2.244851
      6         17           0        1.350792    0.442273   -0.142254
      7          1           0       -0.856167    1.256073   -0.014302
      8          6           0       -1.077673   -0.880236   -0.190840
      9          1           0       -0.551999   -1.775485    0.161593
     10          6           0       -1.190377   -0.896091   -1.724435
     11          1           0       -2.086069   -0.904487    0.241411
     12          1           0       -0.202837   -0.917230   -2.192338
     13          1           0       -1.721757   -0.008187   -2.086169
     14          1           0       -1.744288   -1.779559   -2.060092
 ---------------------------------------------------------------------
                    Distance matrix (angstroms):
                    1          2          3          4          5
     1  C    0.000000
     2  C    1.532954   0.000000
     3  H    2.180208   1.094186   0.000000
     4  H    2.172035   1.094416   1.775533   0.000000
     5  H    2.164109   1.096046   1.777783   1.779406   0.000000
     6  Cl   1.809433   2.732699   2.904418   2.955395   3.709693
     7  H    1.094557   2.155526   2.495554   3.067379   2.494922
     8  C    1.536554   2.548741   3.501568   2.805389   2.785421
     9  H    2.153000   2.798754   3.795941   2.610409   3.159220
    10  C    2.588588   3.939349   4.756188   4.275983   4.188359
    11  H    2.130153   2.687000   3.699010   3.029175   2.467959
    12  H    2.884329   4.324336   5.023409   4.566701   4.805789
    13  H    2.840437   4.225113   4.916221   4.796946   4.357121
    14  H    3.526616   4.720477   5.637018   4.932201   4.835197
                    6          7          8          9         10
     6  Cl   0.000000
     7  H    2.355697   0.000000
     8  C    2.765653   2.155006   0.000000
     9  H    2.937923   3.051853   1.096364   0.000000
    10  C    3.279033   2.769127   1.537812   2.176686   0.000000
    11  H    3.711196   2.499214   1.097402   1.765893   2.160297
    12  H    2.909442   3.145461   2.184651   2.529724   1.092985
    13  H    3.663643   2.576865   2.183480   3.089355   1.096171
    14  H    4.265461   3.766839   2.178820   2.521399   1.095444
                   11         12         13         14
    11  H    0.000000
    12  H    3.077314   0.000000
    13  H    2.520656   1.773345   0.000000
    14  H    2.485856   1.771207   1.771707   0.000000
 Stoichiometry    C4H9Cl
 Framework group  C1[X(C4H9Cl)]
 Deg. of freedom    36
 Full point group                 C1      NOp   1
 Largest Abelian subgroup         C1      NOp   1
 Largest concise Abelian subgroup C1      NOp   1
                         Standard orientation:                         
 ---------------------------------------------------------------------
 Center     Atomic      Atomic             Coordinates (Angstroms)
 Number     Number       Type             X           Y           Z
 ---------------------------------------------------------------------
      1          6           0       -0.267593    0.423552    0.352471
      2          6           0       -1.315544    1.483341   -0.006126
      3          1           0       -2.265457    1.283999    0.499020
      4          1           0       -1.493317    1.494192   -1.085953
      5          1           0       -0.959252    2.473495    0.300420
      6         17           0       -0.903035   -1.217307   -0.069243
      7          1           0       -0.121852    0.416557    1.437260
      8          6           0        1.084599    0.688318   -0.327583
      9          1           0        0.946971    0.627065   -1.413548
     10          6           0        2.222556   -0.244205    0.119988
     11          1           0        1.359195    1.724586   -0.092980
     12          1           0        2.004846   -1.283906   -0.137385
     13          1           0        2.373153   -0.184125    1.204101
     14          1           0        3.163213    0.036305   -0.366302
 ---------------------------------------------------------------------
 Rotational constants (GHZ):      4.5678124      3.0505895      1.9773573
 Standard basis: 6-31G(d) (6D, 7F)
 There are    97 symmetry adapted basis functions of A   symmetry.
 Integral buffers will be    131072 words long.
 Raffenetti 2 integral format.
 Two-electron integral symmetry is turned on.
    97 basis functions,   200 primitive gaussians,    97 cartesian basis functions
    25 alpha electrons       25 beta electrons
       nuclear repulsion energy       232.5294558444 Hartrees.
 NAtoms=   14 NActive=   14 NUniq=   14 SFac= 1.00D+00 NAtFMM=   50 NAOKFM=F Big=F
 One-electron integrals computed using PRISM.
 NBasis=    97 RedAO= T  NBF=    97
 NBsUse=    97 1.00D-06 NBFU=    97
 Initial guess read from the read-write file.
 B after Tr=     0.000000    0.000000    0.000000
         Rot=    1.000000    0.000000    0.000000    0.000000 Ang=   0.00 deg.
 Initial guess orbital symmetries:
       Occupied  (A) (A) (A) (A) (A) (A) (A) (A) (A) (A) (A) (A)
                 (A) (A) (A) (A) (A) (A) (A) (A) (A) (A) (A) (A)
                 (A)
       Virtual   (A) (A) (A) (A) (A) (A) (A) (A) (A) (A) (A) (A)
                 (A) (A) (A) (A) (A) (A) (A) (A) (A) (A) (A) (A)
                 (A) (A) (A) (A) (A) (A) (A) (A) (A) (A) (A) (A)
                 (A) (A) (A) (A) (A) (A) (A) (A) (A) (A) (A) (A)
                 (A) (A) (A) (A) (A) (A) (A) (A) (A) (A) (A) (A)
                 (A) (A) (A) (A) (A) (A) (A) (A) (A) (A) (A) (A)
 Harris functional with IExCor=  402 diagonalized for initial guess.
 ExpMin= 1.43D-01 ExpMax= 2.52D+04 ExpMxC= 3.78D+03 IAcc=1 IRadAn=         1 AccDes= 0.00D+00
 HarFok:  IExCor=  402 AccDes= 0.00D+00 IRadAn=         1 IDoV= 1
 ScaDFX=  1.000000  1.000000  1.000000  1.000000
 FoFCou: FMM=F IPFlag=           0 FMFlag=      100000 FMFlg1=           0
         NFxFlg=           0 DoJE=T BraDBF=F KetDBF=T FulRan=T
         Omega=  0.000000  0.000000  1.000000  0.000000  0.000000 ICntrl=     500 IOpCl=  0
         NMat0=    1 NMatS0=    1 NMatT0=    0 NMatD0=    1 NMtDS0=    0 NMtDT0=    0
         I1Cent=           4 NGrid=           0.
 Petite list used in FoFCou.
 Requested convergence on RMS density matrix=1.00D-08 within 128 cycles.
 Requested convergence on MAX density matrix=1.00D-06.
 Requested convergence on             energy=1.00D-06.
 No special actions if energy rises.
 Keep R1 ints in memory in canonical form, NReq=12379667.
 Integral accuracy reduced to 1.0D-05 until final iterations.
 Initial convergence to 1.0D-05 achieved.  Increase integral accuracy.
 SCF Done:  E(RB3LYP) =  -618.056545348     A.U. after   11 cycles
             Convg  =    0.6370D-08             -V/T =  2.0049
 Calling FoFJK, ICntrl=      2127 FMM=F ISym2X=0 I1Cent= 0 IOpClX= 0 NMat=1 NMatS=1 NMatT=0.
 ***** Axes restored to original set *****
 -------------------------------------------------------------------
 Center     Atomic                   Forces (Hartrees/Bohr)
 Number     Number              X              Y              Z
 -------------------------------------------------------------------
      1        6          -0.014802358   -0.002158652    0.006961423
      2        6           0.002807906    0.000206550   -0.003563481
      3        1          -0.000180383   -0.000352937    0.000083410
      4        1          -0.000123152   -0.000196659    0.000847564
      5        1          -0.000294792   -0.000062571   -0.000128160
      6       17           0.007000139    0.000397107   -0.002816884
      7        1           0.002304117    0.001011815   -0.001322078
      8        6           0.003507274    0.002110766   -0.004944806
      9        1          -0.000519751   -0.000933045    0.000248680
     10        6           0.000297370   -0.000456663    0.004221899
     11        1          -0.000459053   -0.000131708    0.001321582
     12        1           0.000535851    0.000294176   -0.000462715
     13        1          -0.000049007    0.000183223   -0.000505139
     14        1          -0.000024163    0.000088596    0.000058705
 -------------------------------------------------------------------
 Cartesian Forces:  Max     0.014802358 RMS     0.003171569

 GradGradGradGradGradGradGradGradGradGradGradGradGradGradGradGradGradGrad
 Berny optimization.
 Using GEDIIS/GDIIS optimizer.
 Internal  Forces:  Max     0.007527544 RMS     0.001270088
 Search for a local minimum.
 Step number   2 out of a maximum of   74
 All quantities printed in internal units (Hartrees-Bohrs-Radians)
 Mixed Optimization -- RFO/linear search
 Update second derivatives using D2CorX and points    1    2
 DE= -2.62D-03 DEPred=-2.28D-03 R= 1.15D+00
 SS=  1.41D+00  RLast= 2.04D-01 DXNew= 5.0454D-01 6.1237D-01
 Trust test= 1.15D+00 RLast= 2.04D-01 DXMaxT set to 5.05D-01
 ITU=  1  0
 Use linear search instead of GDIIS.
     Eigenvalues ---    0.00230   0.00230   0.00241   0.03274   0.04022
     Eigenvalues ---    0.04732   0.04881   0.05420   0.05473   0.05496
     Eigenvalues ---    0.05617   0.08531   0.09194   0.12302   0.15613
     Eigenvalues ---    0.16000   0.16000   0.16000   0.16000   0.16115
     Eigenvalues ---    0.16964   0.20829   0.23053   0.23585   0.27439
     Eigenvalues ---    0.27630   0.27879   0.33299   0.33404   0.33434
     Eigenvalues ---    0.33445   0.33487   0.33542   0.33558   0.33572
     Eigenvalues ---    0.35614
 RFO step:  Lambda=-6.64666991D-04 EMin= 2.29878794D-03
 Quartic linear search produced a step of  0.27659.
 Iteration  1 RMS(Cart)=  0.01739800 RMS(Int)=  0.00027962
 Iteration  2 RMS(Cart)=  0.00035402 RMS(Int)=  0.00015441
 Iteration  3 RMS(Cart)=  0.00000007 RMS(Int)=  0.00015441
 Variable       Old X    -DE/DX   Delta X   Delta X   Delta X     New X
                                 (Linear)    (Quad)   (Total)
    R1        2.89686  -0.00286  -0.00917  -0.00955  -0.01871   2.87815
    R2        3.41933   0.00753   0.01992   0.02570   0.04561   3.46495
    R3        2.06841   0.00031  -0.00402   0.00278  -0.00124   2.06717
    R4        2.90367  -0.00241  -0.00885  -0.00769  -0.01654   2.88712
    R5        2.06771  -0.00034  -0.00414   0.00035  -0.00379   2.06392
    R6        2.06815   0.00043  -0.00358   0.00307  -0.00052   2.06763
    R7        2.07123   0.00025  -0.00259   0.00197  -0.00063   2.07060
    R8        2.07183   0.00059  -0.00324   0.00356   0.00032   2.07215
    R9        2.90604  -0.00336  -0.00697  -0.01276  -0.01973   2.88632
   R10        2.07379   0.00094  -0.00329   0.00492   0.00163   2.07542
   R11        2.06544   0.00068  -0.00416   0.00423   0.00007   2.06552
   R12        2.07146   0.00034  -0.00267   0.00234  -0.00033   2.07114
   R13        2.07009  -0.00008  -0.00352   0.00111  -0.00241   2.06768
    A1        1.90958  -0.00017   0.00313  -0.00954  -0.00634   1.90323
    A2        1.90422   0.00025   0.00083   0.02006   0.02037   1.92459
    A3        1.95944   0.00150   0.00543   0.01061   0.01558   1.97503
    A4        1.84621  -0.00070  -0.00954  -0.02300  -0.03236   1.81386
    A5        1.94137  -0.00141   0.00312  -0.01972  -0.01661   1.92476
    A6        1.89923   0.00043  -0.00369   0.02067   0.01634   1.91557
    A7        1.93856   0.00022   0.00500   0.00029   0.00526   1.94383
    A8        1.92699   0.00111   0.00036   0.00961   0.00993   1.93691
    A9        1.91442  -0.00059  -0.00433  -0.00437  -0.00868   1.90573
   A10        1.89262  -0.00048  -0.00078  -0.00086  -0.00171   1.89091
   A11        1.89407   0.00004   0.00027  -0.00152  -0.00123   1.89284
   A12        1.89632  -0.00034  -0.00055  -0.00337  -0.00391   1.89241
   A13        1.89472   0.00063  -0.00420   0.00713   0.00259   1.89731
   A14        2.00193  -0.00032   0.01201  -0.00459   0.00737   2.00929
   A15        1.86324  -0.00052  -0.01152  -0.00119  -0.01286   1.85038
   A16        1.92548  -0.00028   0.00474  -0.00379   0.00091   1.92639
   A17        1.87122  -0.00043  -0.00438  -0.00763  -0.01225   1.85896
   A18        1.90205   0.00089   0.00229   0.00978   0.01230   1.91435
   A19        1.94003   0.00018   0.00082   0.00102   0.00184   1.94187
   A20        1.93507   0.00053   0.00250   0.00293   0.00542   1.94049
   A21        1.92938  -0.00015   0.00288  -0.00198   0.00089   1.93026
   A22        1.88850  -0.00043  -0.00265  -0.00298  -0.00563   1.88287
   A23        1.88609   0.00003  -0.00085   0.00117   0.00031   1.88640
   A24        1.88287  -0.00019  -0.00296  -0.00025  -0.00323   1.87964
    D1        0.99125   0.00016  -0.00639  -0.00857  -0.01498   0.97627
    D2       -1.10894  -0.00012  -0.00888  -0.01407  -0.02302  -1.13197
    D3        3.08500  -0.00003  -0.00564  -0.01314  -0.01884   3.06616
    D4       -1.02092   0.00095   0.00281   0.01304   0.01604  -1.00488
    D5       -3.12112   0.00067   0.00032   0.00754   0.00800  -3.11312
    D6        1.07282   0.00076   0.00355   0.00847   0.01218   1.08501
    D7       -3.12771  -0.00073   0.00341  -0.03352  -0.03019   3.12529
    D8        1.05528  -0.00102   0.00091  -0.03901  -0.03823   1.01705
    D9       -1.03396  -0.00092   0.00415  -0.03808  -0.03405  -1.06801
   D10       -1.09799   0.00075  -0.00509   0.04708   0.04197  -1.05602
   D11        3.02280   0.00085  -0.01638   0.04976   0.03341   3.05621
   D12        0.91407   0.00029  -0.01886   0.04110   0.02249   0.93656
   D13        1.04844   0.00058   0.00493   0.02778   0.03261   1.08105
   D14       -1.11396   0.00068  -0.00635   0.03046   0.02405  -1.08991
   D15        3.06050   0.00012  -0.00883   0.02180   0.01314   3.07364
   D16        3.07553  -0.00082  -0.00714   0.00099  -0.00635   3.06919
   D17        0.91314  -0.00072  -0.01843   0.00367  -0.01491   0.89823
   D18       -1.19559  -0.00127  -0.02091  -0.00499  -0.02582  -1.22141
   D19        1.09803   0.00013   0.00329  -0.01547  -0.01217   1.08586
   D20       -1.00335   0.00019   0.00441  -0.01435  -0.00992  -1.01328
   D21       -3.09061   0.00019   0.00464  -0.01464  -0.00998  -3.10060
   D22       -1.04792  -0.00026  -0.00320  -0.01856  -0.02184  -1.06976
   D23        3.13389  -0.00019  -0.00208  -0.01744  -0.01960   3.11429
   D24        1.04662  -0.00020  -0.00184  -0.01773  -0.01966   1.02697
   D25       -3.09792  -0.00010  -0.00196  -0.01293  -0.01482  -3.11275
   D26        1.08388  -0.00003  -0.00084  -0.01181  -0.01258   1.07130
   D27       -1.00338  -0.00004  -0.00060  -0.01210  -0.01264  -1.01602
         Item               Value     Threshold  Converged?
 Maximum Force            0.007528     0.000450     NO 
 RMS     Force            0.001270     0.000300     NO 
 Maximum Displacement     0.050022     0.001800     NO 
 RMS     Displacement     0.017418     0.001200     NO 
 Predicted change in Energy=-4.674604D-04
 GradGradGradGradGradGradGradGradGradGradGradGradGradGradGradGradGradGrad

                          Input orientation:                          
 ---------------------------------------------------------------------
 Center     Atomic      Atomic             Coordinates (Angstroms)
 Number     Number       Type             X           Y           Z
 ---------------------------------------------------------------------
      1          6           0       -0.403405    0.359295    0.395017
      2          6           0       -0.437407    0.393590    1.917303
      3          1           0        0.072246    1.277470    2.307008
      4          1           0        0.041917   -0.494555    2.339911
      5          1           0       -1.479883    0.417786    2.253826
      6         17           0        1.339651    0.449525   -0.166762
      7          1           0       -0.859319    1.265300   -0.014758
      8          6           0       -1.086350   -0.874087   -0.193652
      9          1           0       -0.568928   -1.769840    0.170056
     10          6           0       -1.181688   -0.897108   -1.717874
     11          1           0       -2.094872   -0.898282    0.240499
     12          1           0       -0.189782   -0.903132   -2.176991
     13          1           0       -1.721358   -0.020550   -2.094189
     14          1           0       -1.718102   -1.788600   -2.056555
 ---------------------------------------------------------------------
                    Distance matrix (angstroms):
                    1          2          3          4          5
     1  C    0.000000
     2  C    1.523052   0.000000
     3  H    2.173706   1.092180   0.000000
     4  H    2.170249   1.094143   1.772589   0.000000
     5  H    2.148812   1.095714   1.775103   1.776416   0.000000
     6  Cl   1.833571   2.739414   2.900232   2.976375   3.716184
     7  H    1.093900   2.161192   2.501711   3.074700   2.499970
     8  C    1.527801   2.546422   3.496404   2.799281   2.795344
     9  H    2.147375   2.783990   3.776739   2.589933   3.155573
    10  C    2.578484   3.928660   4.743502   4.257331   4.194313
    11  H    2.113395   2.688457   3.701453   3.022647   2.482686
    12  H    2.873079   4.301866   4.992988   4.541257   4.800138
    13  H    2.842082   4.232271   4.926703   4.795317   4.376720
    14  H    3.514554   4.711018   5.625550   4.909291   4.848120
                    6          7          8          9         10
     6  Cl   0.000000
     7  H    2.350333   0.000000
     8  C    2.763720   2.158824   0.000000
     9  H    2.946472   3.054596   1.096532   0.000000
    10  C    3.252155   2.771377   1.527374   2.168274   0.000000
    11  H    3.711926   2.504563   1.098267   1.758715   2.160817
    12  H    2.865286   3.134586   2.176766   2.530527   1.093025
    13  H    3.647701   2.592403   2.178027   3.084626   1.095998
    14  H    4.234427   3.772631   2.169298   2.505744   1.094168
                   11         12         13         14
    11  H    0.000000
    12  H    3.077930   0.000000
    13  H    2.522042   1.769614   0.000000
    14  H    2.492204   1.770402   1.768453   0.000000
 Stoichiometry    C4H9Cl
 Framework group  C1[X(C4H9Cl)]
 Deg. of freedom    36
 Full point group                 C1      NOp   1
 Largest Abelian subgroup         C1      NOp   1
 Largest concise Abelian subgroup C1      NOp   1
                         Standard orientation:                         
 ---------------------------------------------------------------------
 Center     Atomic      Atomic             Coordinates (Angstroms)
 Number     Number       Type             X           Y           Z
 ---------------------------------------------------------------------
      1          6           0       -0.268563    0.443836    0.357446
      2          6           0       -1.329982    1.471535   -0.012571
      3          1           0       -2.283871    1.250423    0.471231
      4          1           0       -1.490410    1.496761   -1.094595
      5          1           0       -0.998580    2.464325    0.311668
      6         17           0       -0.882281   -1.230453   -0.069269
      7          1           0       -0.138144    0.407697    1.442943
      8          6           0        1.078249    0.701779   -0.316155
      9          1           0        0.941340    0.660681   -1.403330
     10          6           0        2.207609   -0.232571    0.113270
     11          1           0        1.344384    1.739451   -0.074086
     12          1           0        1.981782   -1.270980   -0.142485
     13          1           0        2.374329   -0.181120    1.195291
     14          1           0        3.144076    0.042986   -0.381000
 ---------------------------------------------------------------------
 Rotational constants (GHZ):      4.5323235      3.0863164      1.9841279
 Standard basis: 6-31G(d) (6D, 7F)
 There are    97 symmetry adapted basis functions of A   symmetry.
 Integral buffers will be    131072 words long.
 Raffenetti 2 integral format.
 Two-electron integral symmetry is turned on.
    97 basis functions,   200 primitive gaussians,    97 cartesian basis functions
    25 alpha electrons       25 beta electrons
       nuclear repulsion energy       232.6542046119 Hartrees.
 NAtoms=   14 NActive=   14 NUniq=   14 SFac= 1.00D+00 NAtFMM=   50 NAOKFM=F Big=F
 One-electron integrals computed using PRISM.
 NBasis=    97 RedAO= T  NBF=    97
 NBsUse=    97 1.00D-06 NBFU=    97
 Initial guess read from the read-write file.
 B after Tr=     0.000000    0.000000    0.000000
         Rot=    1.000000    0.000000    0.000000    0.000000 Ang=   0.00 deg.
 Initial guess orbital symmetries:
       Occupied  (A) (A) (A) (A) (A) (A) (A) (A) (A) (A) (A) (A)
                 (A) (A) (A) (A) (A) (A) (A) (A) (A) (A) (A) (A)
                 (A)
       Virtual   (A) (A) (A) (A) (A) (A) (A) (A) (A) (A) (A) (A)
                 (A) (A) (A) (A) (A) (A) (A) (A) (A) (A) (A) (A)
                 (A) (A) (A) (A) (A) (A) (A) (A) (A) (A) (A) (A)
                 (A) (A) (A) (A) (A) (A) (A) (A) (A) (A) (A) (A)
                 (A) (A) (A) (A) (A) (A) (A) (A) (A) (A) (A) (A)
                 (A) (A) (A) (A) (A) (A) (A) (A) (A) (A) (A) (A)
 Harris functional with IExCor=  402 diagonalized for initial guess.
 ExpMin= 1.43D-01 ExpMax= 2.52D+04 ExpMxC= 3.78D+03 IAcc=1 IRadAn=         1 AccDes= 0.00D+00
 HarFok:  IExCor=  402 AccDes= 0.00D+00 IRadAn=         1 IDoV= 1
 ScaDFX=  1.000000  1.000000  1.000000  1.000000
 FoFCou: FMM=F IPFlag=           0 FMFlag=      100000 FMFlg1=           0
         NFxFlg=           0 DoJE=T BraDBF=F KetDBF=T FulRan=T
         Omega=  0.000000  0.000000  1.000000  0.000000  0.000000 ICntrl=     500 IOpCl=  0
         NMat0=    1 NMatS0=    1 NMatT0=    0 NMatD0=    1 NMtDS0=    0 NMtDT0=    0
         I1Cent=           4 NGrid=           0.
 Petite list used in FoFCou.
 Requested convergence on RMS density matrix=1.00D-08 within 128 cycles.
 Requested convergence on MAX density matrix=1.00D-06.
 Requested convergence on             energy=1.00D-06.
 No special actions if energy rises.
 Keep R1 ints in memory in canonical form, NReq=12379667.
 Integral accuracy reduced to 1.0D-05 until final iterations.
 Initial convergence to 1.0D-05 achieved.  Increase integral accuracy.
 SCF Done:  E(RB3LYP) =  -618.057019925     A.U. after   10 cycles
             Convg  =    0.6870D-08             -V/T =  2.0049
 Calling FoFJK, ICntrl=      2127 FMM=F ISym2X=0 I1Cent= 0 IOpClX= 0 NMat=1 NMatS=1 NMatT=0.
 ***** Axes restored to original set *****
 -------------------------------------------------------------------
 Center     Atomic                   Forces (Hartrees/Bohr)
 Number     Number              X              Y              Z
 -------------------------------------------------------------------
      1        6          -0.002298284    0.000347274    0.000157687
      2        6           0.000395911   -0.000042631   -0.000570986
      3        1           0.000244641    0.000787448    0.000229140
      4        1           0.000193413   -0.000506109    0.000097350
      5        1          -0.000776771    0.000008451    0.000694776
      6       17           0.003071786    0.000103013   -0.000441544
      7        1          -0.000006915    0.000420397    0.000102396
      8        6           0.000708036   -0.000041081    0.000959811
      9        1           0.000272552   -0.000598513    0.000148238
     10        6          -0.000417924    0.000310402   -0.000610489
     11        1          -0.001237626   -0.000544163   -0.000048492
     12        1           0.000539657   -0.000095940   -0.000190768
     13        1          -0.000297997    0.000521946   -0.000274919
     14        1          -0.000390478   -0.000670495   -0.000252200
 -------------------------------------------------------------------
 Cartesian Forces:  Max     0.003071786 RMS     0.000750466

 GradGradGradGradGradGradGradGradGradGradGradGradGradGradGradGradGradGrad
 Berny optimization.
 Using GEDIIS/GDIIS optimizer.
 Internal  Forces:  Max     0.003058194 RMS     0.000576935
 Search for a local minimum.
 Step number   3 out of a maximum of   74
 All quantities printed in internal units (Hartrees-Bohrs-Radians)
 Mixed Optimization -- En-DIIS/RFO-DIIS
 Update second derivatives using D2CorX and points    1    2    3
 DE= -4.75D-04 DEPred=-4.67D-04 R= 1.02D+00
 SS=  1.41D+00  RLast= 1.40D-01 DXNew= 8.4853D-01 4.2004D-01
 Trust test= 1.02D+00 RLast= 1.40D-01 DXMaxT set to 5.05D-01
 ITU=  1  1  0
 Use linear search instead of GDIIS.
     Eigenvalues ---    0.00230   0.00230   0.00248   0.03161   0.03770
     Eigenvalues ---    0.04681   0.04926   0.05393   0.05402   0.05469
     Eigenvalues ---    0.05642   0.08768   0.09612   0.12593   0.15211
     Eigenvalues ---    0.16000   0.16000   0.16000   0.16113   0.16128
     Eigenvalues ---    0.17225   0.17840   0.22931   0.23391   0.27471
     Eigenvalues ---    0.27652   0.29473   0.33295   0.33406   0.33445
     Eigenvalues ---    0.33475   0.33505   0.33545   0.33558   0.33690
     Eigenvalues ---    0.36912
 RFO step:  Lambda=-1.17840727D-04 EMin= 2.29698888D-03
 Quartic linear search produced a step of  0.03686.
 Iteration  1 RMS(Cart)=  0.01740707 RMS(Int)=  0.00010504
 Iteration  2 RMS(Cart)=  0.00014599 RMS(Int)=  0.00000859
 Iteration  3 RMS(Cart)=  0.00000001 RMS(Int)=  0.00000859
 Variable       Old X    -DE/DX   Delta X   Delta X   Delta X     New X
                                 (Linear)    (Quad)   (Total)
    R1        2.87815   0.00046  -0.00069  -0.00045  -0.00114   2.87702
    R2        3.46495   0.00306   0.00168   0.01616   0.01784   3.48279
    R3        2.06717   0.00031  -0.00005   0.00064   0.00060   2.06777
    R4        2.88712   0.00137  -0.00061   0.00323   0.00262   2.88975
    R5        2.06392   0.00083  -0.00014   0.00201   0.00187   2.06579
    R6        2.06763   0.00053  -0.00002   0.00140   0.00138   2.06901
    R7        2.07060   0.00096  -0.00002   0.00274   0.00272   2.07332
    R8        2.07215   0.00067   0.00001   0.00192   0.00193   2.07408
    R9        2.88632   0.00136  -0.00073   0.00297   0.00224   2.88856
   R10        2.07542   0.00113   0.00006   0.00346   0.00352   2.07894
   R11        2.06552   0.00057   0.00000   0.00154   0.00155   2.06706
   R12        2.07114   0.00066  -0.00001   0.00185   0.00183   2.07297
   R13        2.06768   0.00082  -0.00009   0.00211   0.00202   2.06970
    A1        1.90323  -0.00066  -0.00023  -0.00559  -0.00582   1.89741
    A2        1.92459  -0.00021   0.00075   0.00003   0.00073   1.92532
    A3        1.97503   0.00032   0.00057   0.00245   0.00300   1.97803
    A4        1.81386   0.00017  -0.00119  -0.00160  -0.00279   1.81106
    A5        1.92476   0.00029  -0.00061   0.00012  -0.00049   1.92428
    A6        1.91557   0.00007   0.00060   0.00419   0.00476   1.92033
    A7        1.94383  -0.00016   0.00019  -0.00040  -0.00021   1.94361
    A8        1.93691  -0.00024   0.00037  -0.00073  -0.00037   1.93655
    A9        1.90573   0.00065  -0.00032   0.00335   0.00303   1.90876
   A10        1.89091   0.00018  -0.00006   0.00062   0.00056   1.89146
   A11        1.89284  -0.00024  -0.00005  -0.00150  -0.00155   1.89130
   A12        1.89241  -0.00019  -0.00014  -0.00142  -0.00156   1.89085
   A13        1.89731  -0.00002   0.00010   0.00115   0.00124   1.89855
   A14        2.00929  -0.00005   0.00027   0.00145   0.00172   2.01101
   A15        1.85038   0.00058  -0.00047   0.00373   0.00325   1.85363
   A16        1.92639   0.00010   0.00003   0.00058   0.00061   1.92699
   A17        1.85896  -0.00005  -0.00045  -0.00250  -0.00295   1.85601
   A18        1.91435  -0.00055   0.00045  -0.00463  -0.00417   1.91018
   A19        1.94187  -0.00010   0.00007  -0.00059  -0.00053   1.94134
   A20        1.94049   0.00011   0.00020   0.00159   0.00179   1.94227
   A21        1.93026  -0.00001   0.00003   0.00005   0.00008   1.93035
   A22        1.88287   0.00002  -0.00021  -0.00029  -0.00050   1.88237
   A23        1.88640   0.00000   0.00001  -0.00055  -0.00054   1.88586
   A24        1.87964  -0.00002  -0.00012  -0.00025  -0.00037   1.87927
    D1        0.97627  -0.00012  -0.00055   0.01090   0.01035   0.98662
    D2       -1.13197  -0.00008  -0.00085   0.01088   0.01003  -1.12193
    D3        3.06616  -0.00010  -0.00069   0.01095   0.01026   3.07642
    D4       -1.00488   0.00016   0.00059   0.01589   0.01649  -0.98839
    D5       -3.11312   0.00020   0.00029   0.01588   0.01617  -3.09695
    D6        1.08501   0.00018   0.00045   0.01595   0.01640   1.10141
    D7        3.12529  -0.00001  -0.00111   0.00862   0.00751   3.13279
    D8        1.01705   0.00004  -0.00141   0.00861   0.00719   1.02424
    D9       -1.06801   0.00001  -0.00125   0.00868   0.00742  -1.06059
   D10       -1.05602   0.00002   0.00155  -0.02677  -0.02521  -1.08123
   D11        3.05621  -0.00007   0.00123  -0.02952  -0.02828   3.02793
   D12        0.93656   0.00024   0.00083  -0.02725  -0.02641   0.91015
   D13        1.08105  -0.00039   0.00120  -0.03221  -0.03100   1.05005
   D14       -1.08991  -0.00048   0.00089  -0.03495  -0.03407  -1.12397
   D15        3.07364  -0.00016   0.00048  -0.03269  -0.03221   3.04143
   D16        3.06919   0.00001  -0.00023  -0.03171  -0.03196   3.03723
   D17        0.89823  -0.00007  -0.00055  -0.03446  -0.03502   0.86321
   D18       -1.22141   0.00024  -0.00095  -0.03219  -0.03316  -1.25457
   D19        1.08586  -0.00004  -0.00045   0.00801   0.00756   1.09343
   D20       -1.01328  -0.00007  -0.00037   0.00771   0.00734  -1.00593
   D21       -3.10060  -0.00011  -0.00037   0.00696   0.00659  -3.09401
   D22       -1.06976  -0.00006  -0.00081   0.00491   0.00411  -1.06565
   D23        3.11429  -0.00009  -0.00072   0.00461   0.00389   3.11817
   D24        1.02697  -0.00013  -0.00072   0.00386   0.00313   1.03010
   D25       -3.11275   0.00026  -0.00055   0.01039   0.00984  -3.10291
   D26        1.07130   0.00024  -0.00046   0.01008   0.00962   1.08092
   D27       -1.01602   0.00019  -0.00047   0.00933   0.00887  -1.00715
         Item               Value     Threshold  Converged?
 Maximum Force            0.003058     0.000450     NO 
 RMS     Force            0.000577     0.000300     NO 
 Maximum Displacement     0.045668     0.001800     NO 
 RMS     Displacement     0.017412     0.001200     NO 
 Predicted change in Energy=-6.027861D-05
 GradGradGradGradGradGradGradGradGradGradGradGradGradGradGradGradGradGrad

                          Input orientation:                          
 ---------------------------------------------------------------------
 Center     Atomic      Atomic             Coordinates (Angstroms)
 Number     Number       Type             X           Y           Z
 ---------------------------------------------------------------------
      1          6           0       -0.396787    0.355371    0.395916
      2          6           0       -0.444272    0.399748    1.916980
      3          1           0        0.057668    1.289884    2.305221
      4          1           0        0.036253   -0.483768    2.349695
      5          1           0       -1.490141    0.420715    2.247826
      6         17           0        1.363817    0.434327   -0.143275
      7          1           0       -0.838871    1.263696   -0.024583
      8          6           0       -1.076621   -0.880145   -0.195475
      9          1           0       -0.549049   -1.776050    0.156156
     10          6           0       -1.192021   -0.893302   -1.719616
     11          1           0       -2.082509   -0.919093    0.248323
     12          1           0       -0.205235   -0.894764   -2.191573
     13          1           0       -1.738327   -0.015090   -2.085178
     14          1           0       -1.731186   -1.784720   -2.057580
 ---------------------------------------------------------------------
                    Distance matrix (angstroms):
                    1          2          3          4          5
     1  C    0.000000
     2  C    1.522451   0.000000
     3  H    2.173773   1.093169   0.000000
     4  H    2.170007   1.094873   1.774339   0.000000
     5  H    2.151572   1.097151   1.776080   1.777173   0.000000
     6  Cl   1.843011   2.741356   2.903986   2.969886   3.723255
     7  H    1.094217   2.161430   2.496488   3.075169   2.509703
     8  C    1.529188   2.549599   3.499874   2.805975   2.798742
     9  H    2.150262   2.800996   3.792959   2.612315   3.175928
    10  C    2.582065   3.931404   4.746297   4.270324   4.190002
    11  H    2.118419   2.684693   3.700103   3.015696   2.478709
    12  H    2.880040   4.314291   5.006292   4.566218   4.805178
    13  H    2.844784   4.226575   4.919772   4.799676   4.361932
    14  H    3.518559   4.714358   5.629141   4.923454   4.843405
                    6          7          8          9         10
     6  Cl   0.000000
     7  H    2.356646   0.000000
     8  C    2.772418   2.163743   0.000000
     9  H    2.938449   3.058876   1.097554   0.000000
    10  C    3.283254   2.765952   1.528560   2.170525   0.000000
    11  H    3.723206   2.526990   1.100129   1.759083   2.160190
    12  H    2.902401   3.123506   2.178057   2.531147   1.093843
    13  H    3.687311   2.586574   2.181089   3.088517   1.096969
    14  H    4.262368   3.771226   2.171209   2.509612   1.095238
                   11         12         13         14
    11  H    0.000000
    12  H    3.078610   0.000000
    13  H    2.526046   1.770739   0.000000
    14  H    2.487957   1.771582   1.769859   0.000000
 Stoichiometry    C4H9Cl
 Framework group  C1[X(C4H9Cl)]
 Deg. of freedom    36
 Full point group                 C1      NOp   1
 Largest Abelian subgroup         C1      NOp   1
 Largest concise Abelian subgroup C1      NOp   1
                         Standard orientation:                         
 ---------------------------------------------------------------------
 Center     Atomic      Atomic             Coordinates (Angstroms)
 Number     Number       Type             X           Y           Z
 ---------------------------------------------------------------------
      1          6           0       -0.255564    0.448574    0.356256
      2          6           0       -1.299903    1.495226   -0.006695
      3          1           0       -2.251673    1.298254    0.493657
      4          1           0       -1.475610    1.514806   -1.087200
      5          1           0       -0.944978    2.486016    0.303313
      6         17           0       -0.916500   -1.218472   -0.068961
      7          1           0       -0.121212    0.406391    1.441375
      8          6           0        1.092235    0.674458   -0.329915
      9          1           0        0.951450    0.606358   -1.416270
     10          6           0        2.217069   -0.257052    0.121231
     11          1           0        1.373261    1.716958   -0.118959
     12          1           0        1.984442   -1.300364   -0.110881
     13          1           0        2.386033   -0.182725    1.202558
     14          1           0        3.155768    0.001095   -0.380515
 ---------------------------------------------------------------------
 Rotational constants (GHZ):      4.5346573      3.0476970      1.9710897
 Standard basis: 6-31G(d) (6D, 7F)
 There are    97 symmetry adapted basis functions of A   symmetry.
 Integral buffers will be    131072 words long.
 Raffenetti 2 integral format.
 Two-electron integral symmetry is turned on.
    97 basis functions,   200 primitive gaussians,    97 cartesian basis functions
    25 alpha electrons       25 beta electrons
       nuclear repulsion energy       232.0766678460 Hartrees.
 NAtoms=   14 NActive=   14 NUniq=   14 SFac= 1.00D+00 NAtFMM=   50 NAOKFM=F Big=F
 One-electron integrals computed using PRISM.
 NBasis=    97 RedAO= T  NBF=    97
 NBsUse=    97 1.00D-06 NBFU=    97
 Initial guess read from the read-write file.
 B after Tr=     0.000000    0.000000    0.000000
         Rot=    1.000000    0.000000    0.000000    0.000000 Ang=   0.00 deg.
 Initial guess orbital symmetries:
       Occupied  (A) (A) (A) (A) (A) (A) (A) (A) (A) (A) (A) (A)
                 (A) (A) (A) (A) (A) (A) (A) (A) (A) (A) (A) (A)
                 (A)
       Virtual   (A) (A) (A) (A) (A) (A) (A) (A) (A) (A) (A) (A)
                 (A) (A) (A) (A) (A) (A) (A) (A) (A) (A) (A) (A)
                 (A) (A) (A) (A) (A) (A) (A) (A) (A) (A) (A) (A)
                 (A) (A) (A) (A) (A) (A) (A) (A) (A) (A) (A) (A)
                 (A) (A) (A) (A) (A) (A) (A) (A) (A) (A) (A) (A)
                 (A) (A) (A) (A) (A) (A) (A) (A) (A) (A) (A) (A)
 Harris functional with IExCor=  402 diagonalized for initial guess.
 ExpMin= 1.43D-01 ExpMax= 2.52D+04 ExpMxC= 3.78D+03 IAcc=1 IRadAn=         1 AccDes= 0.00D+00
 HarFok:  IExCor=  402 AccDes= 0.00D+00 IRadAn=         1 IDoV= 1
 ScaDFX=  1.000000  1.000000  1.000000  1.000000
 FoFCou: FMM=F IPFlag=           0 FMFlag=      100000 FMFlg1=           0
         NFxFlg=           0 DoJE=T BraDBF=F KetDBF=T FulRan=T
         Omega=  0.000000  0.000000  1.000000  0.000000  0.000000 ICntrl=     500 IOpCl=  0
         NMat0=    1 NMatS0=    1 NMatT0=    0 NMatD0=    1 NMtDS0=    0 NMtDT0=    0
         I1Cent=           4 NGrid=           0.
 Petite list used in FoFCou.
 Requested convergence on RMS density matrix=1.00D-08 within 128 cycles.
 Requested convergence on MAX density matrix=1.00D-06.
 Requested convergence on             energy=1.00D-06.
 No special actions if energy rises.
 Keep R1 ints in memory in canonical form, NReq=12379667.
 Integral accuracy reduced to 1.0D-05 until final iterations.
 Initial convergence to 1.0D-05 achieved.  Increase integral accuracy.
 SCF Done:  E(RB3LYP) =  -618.057069572     A.U. after   11 cycles
             Convg  =    0.7358D-08             -V/T =  2.0049
 Calling FoFJK, ICntrl=      2127 FMM=F ISym2X=0 I1Cent= 0 IOpClX= 0 NMat=1 NMatS=1 NMatT=0.
 ***** Axes restored to original set *****
 -------------------------------------------------------------------
 Center     Atomic                   Forces (Hartrees/Bohr)
 Number     Number              X              Y              Z
 -------------------------------------------------------------------
      1        6          -0.000500976    0.000077702   -0.000585166
      2        6           0.000072181   -0.000122884    0.000418757
      3        1           0.000080949    0.000151239   -0.000035458
      4        1          -0.000003822   -0.000070618   -0.000038934
      5        1          -0.000053041    0.000023077    0.000116202
      6       17           0.000244269   -0.000147100   -0.000239136
      7        1          -0.000006244   -0.000063417    0.000029509
      8        6          -0.000154018   -0.000169336    0.001240674
      9        1           0.000077220    0.000134430   -0.000090071
     10        6           0.000173935    0.000318981   -0.000744825
     11        1          -0.000110959   -0.000018137   -0.000231319
     12        1           0.000199067   -0.000019840   -0.000025831
     13        1          -0.000027505    0.000028600    0.000156795
     14        1           0.000008943   -0.000122697    0.000028803
 -------------------------------------------------------------------
 Cartesian Forces:  Max     0.001240674 RMS     0.000286694

 GradGradGradGradGradGradGradGradGradGradGradGradGradGradGradGradGradGrad
 Berny optimization.
 Using GEDIIS/GDIIS optimizer.
 Internal  Forces:  Max     0.000833801 RMS     0.000203310
 Search for a local minimum.
 Step number   4 out of a maximum of   74
 All quantities printed in internal units (Hartrees-Bohrs-Radians)
 Mixed Optimization -- En-DIIS/RFO-DIIS
 Swaping is turned off.
 Update second derivatives using D2CorX and points    1    2    3    4
 DE= -4.96D-05 DEPred=-6.03D-05 R= 8.24D-01
 SS=  1.41D+00  RLast= 1.04D-01 DXNew= 8.4853D-01 3.1301D-01
 Trust test= 8.24D-01 RLast= 1.04D-01 DXMaxT set to 5.05D-01
 ITU=  1  1  1  0
     Eigenvalues ---    0.00230   0.00230   0.00333   0.03278   0.03442
     Eigenvalues ---    0.04781   0.04941   0.05387   0.05404   0.05463
     Eigenvalues ---    0.05627   0.08707   0.09761   0.12570   0.14214
     Eigenvalues ---    0.16000   0.16000   0.16002   0.16008   0.16118
     Eigenvalues ---    0.16360   0.17556   0.22963   0.24079   0.27621
     Eigenvalues ---    0.27679   0.29101   0.33299   0.33416   0.33437
     Eigenvalues ---    0.33447   0.33501   0.33545   0.33555   0.33747
     Eigenvalues ---    0.35644
 En-DIIS/RFO-DIIS IScMMF=        0 using points:     4    3
 RFO step:  Lambda=-6.68760035D-06.
 DidBck=F Rises=F RFO-DIIS coefs:    0.88287    0.11713
 Iteration  1 RMS(Cart)=  0.01114464 RMS(Int)=  0.00004398
 Iteration  2 RMS(Cart)=  0.00006297 RMS(Int)=  0.00000113
 Iteration  3 RMS(Cart)=  0.00000000 RMS(Int)=  0.00000113
 Variable       Old X    -DE/DX   Delta X   Delta X   Delta X     New X
                                  (DIIS)     (GDIIS)  (Total)
    R1        2.87702   0.00045   0.00013   0.00086   0.00099   2.87800
    R2        3.48279   0.00030  -0.00209   0.00680   0.00471   3.48750
    R3        2.06777  -0.00006  -0.00007  -0.00033  -0.00040   2.06737
    R4        2.88975  -0.00032  -0.00031  -0.00051  -0.00081   2.88893
    R5        2.06579   0.00015  -0.00022   0.00069   0.00048   2.06626
    R6        2.06901   0.00004  -0.00016   0.00019   0.00003   2.06904
    R7        2.07332   0.00009  -0.00032   0.00083   0.00051   2.07383
    R8        2.07408  -0.00010  -0.00023   0.00000  -0.00023   2.07385
    R9        2.88856   0.00055  -0.00026   0.00248   0.00222   2.89078
   R10        2.07894   0.00001  -0.00041   0.00073   0.00031   2.07926
   R11        2.06706   0.00019  -0.00018   0.00056   0.00038   2.06744
   R12        2.07297  -0.00002  -0.00021   0.00027   0.00005   2.07302
   R13        2.06970   0.00009  -0.00024   0.00059   0.00036   2.07006
    A1        1.89741   0.00004   0.00068  -0.00156  -0.00087   1.89654
    A2        1.92532  -0.00007  -0.00009   0.00078   0.00070   1.92602
    A3        1.97803   0.00038  -0.00035   0.00227   0.00192   1.97994
    A4        1.81106   0.00010   0.00033  -0.00072  -0.00039   1.81067
    A5        1.92428  -0.00042   0.00006  -0.00212  -0.00206   1.92222
    A6        1.92033  -0.00006  -0.00056   0.00102   0.00046   1.92079
    A7        1.94361  -0.00015   0.00002  -0.00066  -0.00064   1.94298
    A8        1.93655  -0.00008   0.00004  -0.00091  -0.00087   1.93568
    A9        1.90876   0.00018  -0.00035   0.00189   0.00154   1.91030
   A10        1.89146   0.00010  -0.00007   0.00049   0.00043   1.89189
   A11        1.89130  -0.00001   0.00018  -0.00043  -0.00025   1.89105
   A12        1.89085  -0.00003   0.00018  -0.00038  -0.00020   1.89065
   A13        1.89855   0.00019  -0.00015  -0.00094  -0.00109   1.89746
   A14        2.01101  -0.00083  -0.00020  -0.00247  -0.00267   2.00834
   A15        1.85363   0.00044  -0.00038   0.00374   0.00336   1.85699
   A16        1.92699   0.00019  -0.00007  -0.00041  -0.00049   1.92651
   A17        1.85601  -0.00005   0.00035   0.00096   0.00131   1.85732
   A18        1.91018   0.00013   0.00049  -0.00047   0.00002   1.91020
   A19        1.94134  -0.00004   0.00006  -0.00040  -0.00033   1.94101
   A20        1.94227  -0.00019  -0.00021  -0.00042  -0.00063   1.94164
   A21        1.93035  -0.00005  -0.00001   0.00003   0.00002   1.93037
   A22        1.88237   0.00013   0.00006   0.00051   0.00057   1.88294
   A23        1.88586   0.00004   0.00006  -0.00012  -0.00006   1.88580
   A24        1.87927   0.00013   0.00004   0.00044   0.00049   1.87975
    D1        0.98662   0.00009  -0.00121   0.00010  -0.00111   0.98550
    D2       -1.12193   0.00013  -0.00118   0.00055  -0.00063  -1.12256
    D3        3.07642   0.00010  -0.00120   0.00038  -0.00082   3.07559
    D4       -0.98839  -0.00001  -0.00193   0.00140  -0.00053  -0.98893
    D5       -3.09695   0.00003  -0.00189   0.00185  -0.00005  -3.09699
    D6        1.10141   0.00000  -0.00192   0.00168  -0.00024   1.10116
    D7        3.13279  -0.00016  -0.00088  -0.00221  -0.00309   3.12970
    D8        1.02424  -0.00012  -0.00084  -0.00176  -0.00261   1.02163
    D9       -1.06059  -0.00015  -0.00087  -0.00193  -0.00280  -1.06339
   D10       -1.08123  -0.00003   0.00295   0.01418   0.01713  -1.06410
   D11        3.02793   0.00018   0.00331   0.01731   0.02062   3.04855
   D12        0.91015   0.00022   0.00309   0.01673   0.01982   0.92997
   D13        1.05005  -0.00003   0.00363   0.01219   0.01583   1.06587
   D14       -1.12397   0.00019   0.00399   0.01532   0.01931  -1.10467
   D15        3.04143   0.00023   0.00377   0.01474   0.01852   3.05995
   D16        3.03723  -0.00018   0.00374   0.01071   0.01446   3.05169
   D17        0.86321   0.00003   0.00410   0.01384   0.01794   0.88115
   D18       -1.25457   0.00007   0.00388   0.01326   0.01715  -1.23742
   D19        1.09343  -0.00012  -0.00089  -0.00443  -0.00532   1.08811
   D20       -1.00593  -0.00012  -0.00086  -0.00453  -0.00539  -1.01132
   D21       -3.09401  -0.00013  -0.00077  -0.00483  -0.00560  -3.09960
   D22       -1.06565   0.00011  -0.00048  -0.00096  -0.00144  -1.06709
   D23        3.11817   0.00010  -0.00046  -0.00105  -0.00151   3.11667
   D24        1.03010   0.00010  -0.00037  -0.00135  -0.00172   1.02838
   D25       -3.10291  -0.00002  -0.00115  -0.00161  -0.00276  -3.10566
   D26        1.08092  -0.00002  -0.00113  -0.00170  -0.00283   1.07809
   D27       -1.00715  -0.00003  -0.00104  -0.00200  -0.00304  -1.01019
[...]
 RMS     Displacement     0.000197     0.001200     YES
 Predicted change in Energy=-4.756725D-08
 Optimization completed.
    -- Stationary point found.
                           ----------------------------
                           !   Optimized Parameters   !
                           ! (Angstroms and Degrees)  !
 --------------------------                            --------------------------
 ! Name  Definition              Value          Derivative Info.                !
 --------------------------------------------------------------------------------
 ! R1    R(1,2)                  1.5232         -DE/DX =    0.0                 !
 ! R2    R(1,6)                  1.8446         -DE/DX =    0.0                 !
 ! R3    R(1,7)                  1.0941         -DE/DX =    0.0                 !
 ! R4    R(1,8)                  1.5287         -DE/DX =    0.0                 !
 ! R5    R(2,3)                  1.0934         -DE/DX =    0.0                 !
 ! R6    R(2,4)                  1.0949         -DE/DX =    0.0                 !
 ! R7    R(2,5)                  1.0973         -DE/DX =    0.0                 !
 ! R8    R(8,9)                  1.0974         -DE/DX =    0.0                 !
 ! R9    R(8,10)                 1.53           -DE/DX =    0.0                 !
 ! R10   R(8,11)                 1.1001         -DE/DX =    0.0                 !
 ! R11   R(10,12)                1.094          -DE/DX =    0.0                 !
 ! R12   R(10,13)                1.0969         -DE/DX =    0.0                 !
 ! R13   R(10,14)                1.0954         -DE/DX =    0.0                 !
 ! A1    A(2,1,6)              108.6106         -DE/DX =    0.0                 !
 ! A2    A(2,1,7)              110.3818         -DE/DX =    0.0                 !
 ! A3    A(2,1,8)              113.4208         -DE/DX =    0.0                 !
 ! A4    A(6,1,7)              103.7787         -DE/DX =    0.0                 !
 ! A5    A(6,1,8)              110.1122         -DE/DX =    0.0                 !
 ! A6    A(7,1,8)              110.0899         -DE/DX =    0.0                 !
 ! A7    A(1,2,3)              111.2932         -DE/DX =    0.0                 !
 ! A8    A(1,2,4)              110.9128         -DE/DX =    0.0                 !
 ! A9    A(1,2,5)              109.4368         -DE/DX =    0.0                 !
 ! A10   A(3,2,4)              108.413          -DE/DX =    0.0                 !
 ! A11   A(3,2,5)              108.3586         -DE/DX =    0.0                 !
 ! A12   A(4,2,5)              108.3421         -DE/DX =    0.0                 !
 ! A13   A(1,8,9)              108.7711         -DE/DX =    0.0                 !
 ! A14   A(1,8,10)             115.0173         -DE/DX =    0.0                 !
 ! A15   A(1,8,11)             106.377          -DE/DX =    0.0                 !
 ! A16   A(9,8,10)             110.3801         -DE/DX =    0.0                 !
 ! A17   A(9,8,11)             106.4791         -DE/DX =    0.0                 !
 ! A18   A(10,8,11)            109.4111         -DE/DX =    0.0                 !
 ! A19   A(8,10,12)            111.2058         -DE/DX =    0.0                 !
 ! A20   A(8,10,13)            111.2011         -DE/DX =    0.0                 !
 ! A21   A(8,10,14)            110.5713         -DE/DX =    0.0                 !
 ! A22   A(12,10,13)           107.9217         -DE/DX =    0.0                 !
 ! A23   A(12,10,14)           108.0716         -DE/DX =    0.0                 !
 ! A24   A(13,10,14)           107.7286         -DE/DX =    0.0                 !
 ! D1    D(6,1,2,3)             56.5073         -DE/DX =    0.0                 !
 ! D2    D(6,1,2,4)            -64.2793         -DE/DX =    0.0                 !
 ! D3    D(6,1,2,5)            176.2431         -DE/DX =    0.0                 !
 ! D4    D(7,1,2,3)            -56.6471         -DE/DX =    0.0                 !
 ! D5    D(7,1,2,4)           -177.4337         -DE/DX =    0.0                 !
 ! D6    D(7,1,2,5)             63.0887         -DE/DX =    0.0                 !
 ! D7    D(8,1,2,3)            179.278          -DE/DX =    0.0                 !
 ! D8    D(8,1,2,4)             58.4914         -DE/DX =    0.0                 !
 ! D9    D(8,1,2,5)            -60.9862         -DE/DX =    0.0                 !
 ! D10   D(2,1,8,9)            -61.2164         -DE/DX =    0.0                 !
 ! D11   D(2,1,8,10)           174.4162         -DE/DX =    0.0                 !
 ! D12   D(2,1,8,11)            53.1236         -DE/DX =    0.0                 !
 ! D13   D(6,1,8,9)             60.7213         -DE/DX =    0.0                 !
 ! D14   D(6,1,8,10)           -63.6461         -DE/DX =    0.0                 !
 ! D15   D(6,1,8,11)           175.0613         -DE/DX =    0.0                 !
 ! D16   D(7,1,8,9)            174.5501         -DE/DX =    0.0                 !
 ! D17   D(7,1,8,10)            50.1827         -DE/DX =    0.0                 !
 ! D18   D(7,1,8,11)           -71.1099         -DE/DX =    0.0                 !
 ! D19   D(1,8,10,12)           62.4598         -DE/DX =    0.0                 !
 ! D20   D(1,8,10,13)          -57.8403         -DE/DX =    0.0                 !
 ! D21   D(1,8,10,14)         -177.4731         -DE/DX =    0.0                 !
 ! D22   D(9,8,10,12)          -61.0575         -DE/DX =    0.0                 !
 ! D23   D(9,8,10,13)          178.6424         -DE/DX =    0.0                 !
 ! D24   D(9,8,10,14)           59.0096         -DE/DX =    0.0                 !
 ! D25   D(11,8,10,12)        -177.9137         -DE/DX =    0.0                 !
 ! D26   D(11,8,10,13)          61.7862         -DE/DX =    0.0                 !
 ! D27   D(11,8,10,14)         -57.8466         -DE/DX =    0.0                 !
 --------------------------------------------------------------------------------
 GradGradGradGradGradGradGradGradGradGradGradGradGradGradGradGradGradGrad


 Test job not archived.
 1\1\GINC-TERMINUS\Freq\RB3LYP\6-31G(d)\C4H9Cl1\FRODOX\22-Jan-2018\0\\#
 N Geom=AllCheck Guess=TCheck SCRF=Check Test GenChk RB3LYP/6-31G(d) Fr
 eq\\AsymmetricEnantiomers/r-2-chlorobutane_rotated.xyz\\0,1\C,-0.40420
 2858,0.3564642427,0.3962084346\C,-0.440581095,0.3986828711,1.918404010
 2\H,0.0651246893,1.2885170017,2.3031397845\H,0.04308775,-0.4858601085,
 2.3455831685\H,-1.4837218276,0.419875015,2.2582828044\Cl,1.3549409311,
 0.4359788387,-0.1530291489\H,-0.8487383095,1.264984538,-0.0209074759\C
 ,-1.083734546,-0.8792303974,-0.193779114\H,-0.5589918761,-1.7747734153
 ,0.1625294953\C,-1.1869295717,-0.8940997569,-1.7202582772\H,-2.0934910
 606,-0.9153913698,0.2412977378\H,-0.1960367722,-0.8960339961,-2.183864
 5266\H,-1.7307120488,-0.0159874599,-2.0896697914\H,-1.7232928049,-1.78
 63156521,-2.0610992912\\Version=EM64L-G09RevB.01\State=1-A\HF=-618.057
 0819\RMSD=1.179e-09\RMSF=2.908e-05\ZeroPoint=0.1239965\Thermal=0.13057
 08\Dipole=-0.8677638,-0.1110819,0.2695076\DipoleDeriv=0.8953813,0.1295
 603,-0.2225177,0.0881597,0.2185534,0.0328988,-0.243942,-0.0113505,0.30
 79997,-0.0125485,-0.0342465,0.0249117,-0.0257614,0.0699255,-0.0642491,
 0.0038553,-0.0158729,-0.0242526,0.0411757,-0.0723939,-0.0491163,-0.066
 1783,-0.0532547,-0.0713187,-0.0263004,-0.0462769,-0.004883,0.0407179,0
 .0639561,-0.0371997,0.0644158,-0.0604536,0.0742788,-0.0074027,0.021442
 1,0.0228187,-0.1251022,0.0045558,0.0724436,-0.006721,0.0754921,0.01100
 18,0.0700432,0.0040387,-0.0016343,-0.6755369,-0.1103358,0.1722469,-0.0
 674029,-0.227307,-0.0099776,0.1466822,0.004731,-0.3131152,-0.1075417,0
 .0426084,0.0022633,0.0372275,-0.0642658,0.0381622,0.0047501,0.0560563,
 -0.0280651,0.0245347,-0.0536871,0.0291242,-0.000799,0.0901666,-0.00458
 74,0.050226,-0.015835,0.0774476,0.0167164,0.0799848,-0.0534058,0.04139
 14,-0.0723578,0.0413828,-0.0541842,0.0530982,-0.03042,0.0878006,-0.019
 7333,-0.0099622,-0.0358736,0.0876664,-0.0608606,0.0183938,-0.0125083,0
 .0325416,-0.136298,-0.0265584,0.0874372,-0.0423529,0.029147,-0.0149249
 ,0.0582998,-0.0176273,-0.034508,-0.0704099,0.010224,0.0855185,0.009687
 7,0.074669,0.0238144,0.0473619,0.0093724,0.0153042,0.0095968,0.0808051
 ,-0.0413401,0.0984079,-0.0857069,0.0803374,-0.022759,0.0268871,-0.0039
 887,0.0115138,-0.0947394,-0.0604036,-0.0942008,-0.0822741,-0.075958,-0
 .045024,-0.0561547,-0.0152449\Polar=58.8402977,3.9134242,46.5543677,-2
 .2240583,2.7769083,53.696907\PG=C01 [X(C4H9Cl1)]\NImag=0\\0.33685421,-
 0.05100656,0.54509292,0.06492869,-0.04271728,0.47172914,-0.06807170,0.
 00161017,-0.00679944,0.58078121,0.00069719,-0.08584011,0.00009040,0.00
 452752,0.59287550,-0.00639876,0.00047441,-0.20083866,0.01662444,0.0005
 0983,0.48001569,-0.00113313,0.00232802,0.00226822,-0.10779701,-0.10331
 777,-0.04479135,0.11258710,0.00043125,0.00044795,0.00084474,-0.1025647
 1,-0.23186006,-0.07596418,0.11308613,0.24683299,-0.01675097,-0.0302875
 7,-0.01246292,-0.04193844,-0.07325843,-0.07954874,0.04705278,0.0823740
 7,0.08810585,-0.00084882,-0.00153857,0.00168190,-0.10253401,0.09627976
 ,-0.04636628,0.00769630,-0.01303295,0.00732767,0.10589430,-0.00049346,
 0.00110248,0.00007949,0.09591793,-0.22659094,0.08215138,0.01288049,-0.
 02027604,0.01028572,-0.10614258,0.24208109,-0.01668599,0.03028446,-0.0
 1547914,-0.04406186,0.08003290,-0.08663662,0.00644078,-0.00918506,0.00
 469753,0.04985427,-0.09002836,0.09645939,-0.00259944,-0.00010879,0.000
 43227,-0.28522136,0.00532137,0.07417231,-0.01319914,0.00128520,0.00406
 356,-0.01244889,-0.00075531,0.00389647,0.31025408,0.00047777,-0.001715
 01,0.00003404,0.00490731,-0.04947033,-0.00140608,-0.02562835,0.0021254
 4,0.00955118,0.02559025,0.00084709,-0.00955457,-0.00501680,0.04719002,
 0.03058512,-0.00129301,-0.00839814,0.07388863,-0.00155629,-0.07377434,
 -0.01132824,0.00177428,0.00356820,-0.01265551,-0.00132562,0.00407652,-
 0.08288478,0.00196760,0.07837050,-0.08174574,0.00602378,0.01172298,-0.
 02126663,-0.00038112,0.00903580,0.00086906,0.00062594,-0.00046819,0.00
 133010,-0.00080950,-0.00069614,0.00179073,-0.00035208,0.00353007,0.159
 02791,0.00414835,-0.03507984,0.00037092,-0.00041075,0.00110263,-0.0001
 7122,0.00084681,0.00044725,0.00033480,-0.00069232,0.00029714,-0.000597
 94,-0.00017222,0.00118384,-0.00011395,0.00612269,0.02760185,0.01226710
 ,-0.00006980,-0.03654088,0.03381465,-0.00042885,-0.01036449,0.00042989
 ,0.00055499,0.00136282,-0.00014130,-0.00019058,0.00180056,0.00071779,0
 .00021826,-0.00586864,-0.03933135,0.00228029,0.04562407,-0.08457871,0.
 09145638,-0.04539711,0.00283175,-0.00110298,0.00037549,-0.00026553,0.0
 0027281,0.00009374,0.00114947,-0.00018192,0.00048022,0.00051317,-0.000
 00217,-0.00063961,-0.02827851,0.01646557,-0.00144948,0.09991775,0.0897
 9586,-0.23853957,0.08582092,-0.00122741,0.00260002,-0.00144341,-0.0001
 3920,0.00076561,0.00040019,-0.00036562,0.00116372,-0.00098609,-0.00013
 404,0.00002913,0.00056085,-0.00341396,0.00473509,-0.00111475,-0.091950
 30,0.25399201,-0.04433960,0.08485007,-0.08972204,-0.01424709,0.0283129
 4,-0.01408924,-0.00021783,-0.00045733,0.00135315,0.00057726,-0.0006019
 7,-0.00665029,0.00051957,-0.00013858,0.00118892,0.01060152,-0.00691668
 ,0.00235138,0.04288415,-0.09100610,0.09975909,-0.08461867,-0.03417352,
 -0.02193313,0.00262028,-0.00041415,-0.00425846,0.00005440,0.00003348,0
 .00150860,-0.00030904,-0.00051485,0.00040925,-0.00050440,0.00029406,0.
 00071674,-0.03235973,-0.02182945,-0.00172263,0.00843044,0.01103536,0.0
 0458267,0.56027168,-0.03366897,-0.15886111,-0.03067403,0.00050673,0.00
 018482,-0.00526078,0.00008832,0.00094938,0.00226467,0.00038611,0.00082
 783,0.00167750,-0.00056055,-0.00008875,0.00035783,-0.00255613,0.000711
 80,0.00097982,-0.01340447,-0.02380355,-0.01165307,-0.05052273,0.532520
 43,-0.01974966,-0.03109322,-0.09542397,-0.01584861,-0.03035953,-0.0157
 1168,0.00011624,-0.00055153,-0.00665532,0.00014715,-0.00043587,0.00168
 067,-0.00055983,-0.00015912,0.00091771,0.00919643,0.00661100,0.0012045
 3,0.00402115,0.00946192,0.00485130,-0.02034348,-0.02811458,0.50232188,
 0.00576459,-0.01563973,0.00463060,-0.00005554,0.00031128,0.00081639,0.
 00001048,-0.00002038,0.00022408,0.00015471,0.00027735,0.00004520,0.000
 03893,0.00010516,-0.00002811,0.00200102,-0.00007321,0.00002112,-0.0005
 6003,-0.00332047,-0.00122033,-0.11158306,0.10426584,-0.03927253,0.1176
 4351,0.01448480,-0.02711026,0.00816587,0.00026087,0.00071785,0.0014317
 4,-0.00033520,0.00044193,-0.00008182,-0.00028955,0.00043752,-0.0011448
 8,-0.00009030,0.00002300,0.00002578,0.00032284,0.00187034,-0.00003220,
 -0.00301298,-0.00355829,-0.00266726,0.10113837,-0.21948100,0.06618589,
 -0.11071447,0.24125882,0.00697447,-0.01005424,0.00344968,0.00075871,-0
 .00053544,0.00100930,-0.00006802,0.00025089,0.00005198,-0.00040336,0.0
 0006897,-0.00018994,-0.00000459,-0.00011413,-0.00002123,0.00013768,0.0
 0045247,-0.00002927,-0.00151839,-0.00199408,-0.00055418,-0.03962070,0.
 06636337,-0.07561760,0.04531010,-0.07055979,0.08418354,-0.00205992,-0.
 00034323,-0.01790698,-0.00156140,-0.00227037,-0.00039401,0.00063977,-0
 .00017335,-0.00099982,0.00003622,-0.00011126,0.00018200,0.00046649,-0.
 00016036,-0.00032415,0.00016398,-0.00025911,-0.00126506,0.00022817,0.0
 0087785,0.00119995,-0.08187200,0.00073861,-0.00607161,-0.00069232,-0.0
 0099253,-0.01731057,0.58260513,-0.00116022,0.00013330,-0.03027389,-0.0
 0299843,-0.00504188,-0.00076442,-0.00010325,0.00017033,-0.00200713,-0.
 00026808,0.00022148,-0.00021103,0.00015866,-0.00000421,0.00019275,-0.0
 0027957,0.00010754,-0.00126803,-0.00004093,0.00118841,-0.00070745,0.00
 078356,-0.08239405,0.00368610,0.00067340,0.00173436,0.02811742,0.00344
 999,0.58014005,-0.00577448,-0.00585174,-0.01411925,-0.00038370,-0.0004
 4178,0.00050121,0.00017181,0.00038426,0.00013534,-0.00001540,-0.000067
 21,-0.00007104,0.00010893,0.00005466,0.00000980,0.00079523,-0.00015107
 ,-0.00113063,0.00080327,0.00142802,0.00131703,-0.00514712,0.00233217,-
 0.19634481,-0.00050711,-0.00014903,-0.01197150,-0.00925895,0.00029270,
 0.48022507,-0.01683199,-0.00004001,0.00555555,0.00009713,0.00082714,0.
 00100550,0.00055113,0.00001769,-0.00008179,-0.00009203,-0.00006070,-0.
 00002455,0.00089016,-0.00026891,-0.00085477,-0.00093874,-0.00287348,-0
 .00073377,0.00063160,-0.00039512,-0.00004667,-0.26169009,-0.00572548,0
 .08879248,-0.01441565,-0.00055930,0.00553856,0.00363673,0.00024082,-0.
 00155295,0.28583224,-0.02453880,-0.00166107,0.00900080,-0.00008561,0.0
 0084540,0.00040881,0.00027170,-0.00002828,0.00037451,0.00007618,0.0000
 0591,-0.00009475,0.00010259,-0.00007211,-0.00068426,-0.00483799,-0.002
 68556,-0.00066208,0.00108123,0.00054596,0.00046346,-0.00606035,-0.0517
 1550,0.00360961,0.02529750,0.00180141,-0.01115058,0.00051131,-0.000092
 48,-0.00016159,0.00890269,0.05193919,-0.00899761,0.00062230,0.00300665
 ,-0.00057947,-0.00035208,-0.00030396,-0.00000224,0.00023231,0.00017379
 ,-0.00013795,0.00006064,-0.00000204,-0.00033040,-0.00052731,-0.0003863
 4,-0.00309681,-0.00202269,0.00044586,0.00031097,0.00027048,0.00015472,
 0.08946330,0.00283486,-0.08443469,-0.00944572,-0.00119007,0.00385462,0
 .03209929,0.00046040,-0.01578975,-0.09752114,-0.00052331,0.09731573,-0
 .00021086,-0.00026639,0.00047058,-0.00002067,0.00014257,0.00006370,-0.
 00002605,0.00001939,0.00007913,-0.00000352,-0.00000675,-0.00000326,0.0
 0001950,0.00001686,0.00001424,-0.00075268,-0.00076319,-0.00184423,-0.0
 0001792,-0.00000791,0.00007545,0.00433815,0.00017469,-0.00045558,0.000
 59754,-0.00001745,0.00052551,-0.27262739,0.00179449,0.10192605,0.00128
 455,-0.00050651,-0.00127972,0.29433884,0.00106361,0.00016438,-0.000347
 62,-0.00014943,0.00000562,-0.00003141,0.00000584,-0.00002011,-0.000014
 93,0.00000885,0.00000262,0.00002439,-0.00004040,-0.00001242,0.00007730
 ,-0.00057544,-0.00040566,-0.00031351,0.00000462,0.00000096,-0.00005008
 ,-0.00007329,-0.00068015,0.00018065,-0.00056094,0.00005012,0.00003247,
 0.00108710,-0.05085099,0.00022632,-0.00007699,0.00090538,0.00002504,-0
 .00065169,0.04900509,0.00284668,0.00082688,0.00043596,-0.00024337,0.00
 000393,-0.00009171,-0.00016366,-0.00008858,-0.00002962,0.00005784,0.00
 003233,0.00001106,-0.00021666,0.00004835,0.00027902,-0.00156255,-0.000
 17047,0.00061809,-0.00014671,-0.00019250,-0.00005321,0.03189364,-0.000
 44709,-0.01450546,-0.00013083,0.00031443,0.00140615,0.10008806,-0.0000
 2670,-0.09459898,-0.00110224,-0.00040123,-0.00685100,-0.11074003,-0.00
 003103,0.10430861,0.00004750,0.00111337,0.00004479,0.00010394,-0.00032
 342,-0.00001280,-0.00001502,-0.00001732,-0.00004015,-0.00000235,-0.000
 00682,0.00013448,-0.00002415,0.00001600,0.00001753,-0.00011751,-0.0003
 5609,-0.00006998,-0.00000401,-0.00050604,-0.00034546,-0.00136768,0.000
 45882,-0.00050849,0.00124015,-0.00013351,-0.00018014,-0.11544675,0.104
 26962,-0.04170663,0.00052126,-0.00062155,-0.00028782,-0.01353063,0.025
 45375,-0.01056257,0.11937069,-0.00070732,0.00103978,-0.00042694,-0.000
 00274,0.00032966,-0.00011585,0.00002124,0.00000302,0.00008870,-0.00001
 346,-0.00011693,-0.00011611,-0.00000921,-0.00002838,0.00001245,0.00016
 537,0.00005641,0.00011607,0.00041632,0.00038520,0.00034874,-0.00114667
 ,0.00073171,-0.00023342,-0.00060736,0.00119910,-0.00043479,0.10415509,
 -0.21824791,0.06759391,-0.00027675,0.00014366,0.00049878,-0.00077666,0
 .00070272,-0.00116344,-0.11564955,0.23475873,-0.00007966,0.00206098,0.
 00156972,0.00022161,-0.00015338,-0.00004383,0.00005168,-0.00012199,0.0
 0003857,0.00011846,-0.00010161,0.00028761,0.00000530,0.00003635,-0.000
 03122,0.00006891,-0.00012099,0.00005922,0.00002589,-0.00129475,-0.0000
 1107,-0.01825700,0.02885757,-0.01215893,-0.00020961,-0.00074715,-0.006
 95394,-0.04134321,0.06666164,-0.07626120,0.00049253,-0.00005234,0.0014
 2472,0.00565202,-0.01233727,0.00469126,0.04683826,-0.07480882,0.084274
 05,0.00003267,0.00058507,0.00030108,0.00009401,-0.00029704,0.00012804,
 0.00002764,0.00003681,-0.00007021,-0.00002244,0.00000736,0.00002914,0.
 00002433,0.00002125,-0.00003716,0.00027674,-0.00015361,-0.00069275,0.0
 0000238,-0.00024900,-0.00002356,-0.00141028,-0.00018080,0.00053633,-0.
 00014433,-0.00006159,-0.00013926,-0.11351670,-0.10652006,-0.03945897,0
 .00052372,0.00040761,-0.00019467,-0.01338886,-0.02549559,-0.01001760,0
 .00922455,0.01443173,0.00641482,0.11827658,0.00047650,0.00082617,0.000
 03258,-0.00029147,0.00014182,0.00018117,-0.00000479,0.00000059,-0.0000
 2397,0.00000199,-0.00000297,-0.00010046,0.00001978,-0.00000732,0.00000
 428,-0.00005484,0.00005718,-0.00006962,-0.00000119,0.00049532,0.000223
 30,0.00145019,0.00109814,0.00121211,0.00000604,0.00061512,-0.00044255,
 -0.10650975,-0.22706396,-0.06548961,0.00028840,0.00006809,-0.00038935,
 0.00084853,0.00113243,0.00129511,-0.01369727,-0.02095677,-0.00787826,0
 .11746787,0.24359616,0.00117466,0.00224775,-0.00720614,-0.00120608,-0.
 00186423,-0.00012294,0.00003995,-0.00004686,-0.00079063,-0.00004475,0.
 00007269,0.00001574,0.00008006,-0.00001068,0.00006924,0.00006642,0.000
 21553,0.00046739,0.00015643,0.00008930,0.00010446,-0.01729168,-0.02951
 824,-0.01012363,-0.00023325,0.00044849,0.00138240,-0.03869493,-0.06415
 235,-0.07190129,0.00053325,-0.00012706,0.00139171,0.00551616,0.0125596
 8,0.00437984,0.00667899,0.00864073,0.00311507,0.04322476,0.07144525,0.
 07921877\\-0.00006604,0.00005399,0.00000968,0.00000733,-0.00003220,-0.
 00004532,0.00000773,0.00002026,0.00001108,0.00000562,-0.00001395,0.000
 02573,-0.00001020,-0.00000056,0.00000974,0.00002398,-0.00001144,-0.000
 00411,-0.00000348,0.00001192,-0.00001191,0.00002533,0.00000666,-0.0000
 7659,0.00001165,-0.00003466,0.00002180,-0.00000339,0.00001273,0.000103
 92,-0.00000894,-0.00000573,0.00002148,0.00001906,0.00000122,-0.0000249
 6,-0.00000298,0.00000925,-0.00002860,-0.00000568,-0.00001749,-0.000011
 95\\\@


 I CLAIM NOT TO HAVE CONTROLLED EVENTS,
 BUT CONFESS PLAINLY THAT EVENTS HAVE CONTROLLED ME.

                                         A. LINCOLN
 Job cpu time:  0 days  0 hours  1 minutes 39.3 seconds.
 File lengths (MBytes):  RWF=     22 Int=      0 D2E=      0 Chk=      2 Scr=      1
 Normal termination of Gaussian 09 at Mon Jan 22 17:35:45 2018.
