 Entering Gaussian System, Link 0=g09
 Input=R-R-S-Fructuose.inp
 Output=R-R-S-Fructuose.log
 Initial command:
 /usr/local/g09/l1.exe /home/g09scr/Gau-2609.inp -scrdir=/home/g09scr/
 Entering Link 1 = /usr/local/g09/l1.exe PID=      2611.
  
 Copyright (c) 1988,1990,1992,1993,1995,1998,2003,2009,2010,
            Gaussian, Inc.  All Rights Reserved.
  
 This is part of the Gaussian(R) 09 program.  It is based on
 the Gaussian(R) 03 system (copyright 2003, Gaussian, Inc.),
 the Gaussian(R) 98 system (copyright 1998, Gaussian, Inc.),
 the Gaussian(R) 94 system (copyright 1995, Gaussian, Inc.),
 the Gaussian 92(TM) system (copyright 1992, Gaussian, Inc.),
 the Gaussian 90(TM) system (copyright 1990, Gaussian, Inc.),
 the Gaussian 88(TM) system (copyright 1988, Gaussian, Inc.),
 the Gaussian 86(TM) system (copyright 1986, Carnegie Mellon
 University), and the Gaussian 82(TM) system (copyright 1983,
 Carnegie Mellon University). Gaussian is a federally registered
 trademark of Gaussian, Inc.
  
 This software contains proprietary and confidential information,
 including trade secrets, belonging to Gaussian, Inc.
  
 This software is provided under written license and may be
 used, copied, transmitted, or stored only in accord with that
 written license.
  
 The following legend is applicable only to US Government
 contracts under FAR:
  
                    RESTRICTED RIGHTS LEGEND
  
 Use, reproduction and disclosure by the US Government is
 subject to restrictions as set forth in subparagraphs (a)
 and (c) of the Commercial Computer Software - Restricted
 Rights clause in FAR 52.227-19.
  
 Gaussian, Inc.
 340 Quinnipiac St., Bldg. 40, Wallingford CT 06492
  
  
 ---------------------------------------------------------------
 Warning -- This program may not be used in any manner that
 competes with the business of Gaussian, Inc. or will provide
 assistance to any competitor of Gaussian, Inc.  The licensee
 of this program is prohibited from giving any competitor of
 Gaussian, Inc. access to this program.  By using this program,
 the user acknowledges that Gaussian, Inc. is engaged in the
 business of creating and licensing software in the field of
 computational chemistry and represents and warrants to the
 licensee that it is not a competitor of Gaussian, Inc. and that
 it will not use this program in any manner prohibited above.
 ---------------------------------------------------------------
  

 Cite this work as:
 Gaussian 09, Revision B.01,
 M. J. Frisch, G. W. Trucks, H. B. Schlegel, G. E. Scuseria, 
 M. A. Robb, J. R. Cheeseman, G. Scalmani, V. Barone, B. Mennucci, 
 G. A. Petersson, H. Nakatsuji, M. Caricato, X. Li, H. P. Hratchian, 
 A. F. Izmaylov, J. Bloino, G. Zheng, J. L. Sonnenberg, M. Hada, 
 M. Ehara, K. Toyota, R. Fukuda, J. Hasegawa, M. Ishida, T. Nakajima, 
 Y. Honda, O. Kitao, H. Nakai, T. Vreven, J. A. Montgomery, Jr., 
 J. E. Peralta, F. Ogliaro, M. Bearpark, J. J. Heyd, E. Brothers, 
 K. N. Kudin, V. N. Staroverov, T. Keith, R. Kobayashi, J. Normand, 
 K. Raghavachari, A. Rendell, J. C. Burant, S. S. Iyengar, J. Tomasi, 
 M. Cossi, N. Rega, J. M. Millam, M. Klene, J. E. Knox, J. B. Cross, 
 V. Bakken, C. Adamo, J. Jaramillo, R. Gomperts, R. E. Stratmann, 
 O. Yazyev, A. J. Austin, R. Cammi, C. Pomelli, J. W. Ochterski, 
 R. L. Martin, K. Morokuma, V. G. Zakrzewski, G. A. Voth, 
 P. Salvador, J. J. Dannenberg, S. Dapprich, A. D. Daniels, 
 O. Farkas, J. B. Foresman, J. V. Ortiz, J. Cioslowski, 
 and D. J. Fox, Gaussian, Inc., Wallingford CT, 2010.
 
 ******************************************
 Gaussian 09:  EM64L-G09RevB.01 12-Aug-2010
                 4-Jan-2018 
 ******************************************
 %nproc=4
 Will use up to    4 processors via shared memory.
 %mem=60gb
 -----------------------
 #B3LYP/6-31G* fopt test
 -----------------------
 1/14=-1,18=20,19=15,26=3,38=1/1,3;
 2/9=110,12=2,14=103,17=6,18=5,40=1/2;
 3/5=1,6=6,7=1,11=2,16=1,25=1,30=1,71=1,74=-5/1,2,3;
 4//1;
 5/5=2,38=5/2;
 6/7=2,8=2,9=2,10=2,28=1/1;
 7//1,2,3,16;
 1/14=-1,18=20,19=15/3(2);
 2/9=110/2;
 99//99;
 2/9=110/2;
 3/5=1,6=6,7=1,11=2,16=1,25=1,30=1,71=1,74=-5/1,2,3;
 4/5=5,16=3/1;
 5/5=2,38=5/2;
 7//1,2,3,16;
 1/14=-1,18=20,19=15/3(-5);
 2/9=110/2;
 6/7=2,8=2,9=2,10=2,19=2,28=1/1;
 99/9=1/99;
 --------------------------
 Sugars/R-R-S-Fructuose.xyz
 --------------------------
 Symbolic Z-matrix:
 Charge =  0 Multiplicity = 1
 C                     0.        0.        0. 
 O                     0.        0.        1.41352 
 H                     0.92749   0.        1.70592 
 H                     0.51803  -0.89725  -0.34815 
 H                     0.51786   0.89695  -0.34677 
 C                    -1.42147   0.       -0.52884 
 O                    -2.38889  -0.0311    0.23329 
 C                    -1.59838   0.00492  -2.04619 
 C                    -0.29803   0.04539  -2.86317 
 C                    -0.4755    0.02154  -4.39287 
 C                     0.86828   0.04202  -5.12195 
 H                     1.4567   -0.85196  -4.89019 
 H                     1.45026   0.93508  -4.87855 
 O                     0.62907   0.0516   -6.5257 
 H                     1.49772   0.05882  -6.96259 
 H                    -2.23088   0.86564  -2.28847 
 O                    -2.32272  -1.16099  -2.41868 
 H                    -3.17739  -0.87514  -2.78481 
 H                     0.27509  -0.84763  -2.58217 
 O                     0.49379   1.16746  -2.48447 
 H                     1.31496   0.83388  -2.08567 
 H                    -0.89086  -0.93813  -4.72015 
 O                    -1.23294   1.15613  -4.81274 
 H                    -1.99454   0.83438  -5.32464 
 

 GradGradGradGradGradGradGradGradGradGradGradGradGradGradGradGradGradGrad
 Berny optimization.
 Initialization pass.
                           ----------------------------
                           !    Initial Parameters    !
                           ! (Angstroms and Degrees)  !
 --------------------------                            --------------------------
 ! Name  Definition              Value          Derivative Info.                !
 --------------------------------------------------------------------------------
 ! R1    R(1,2)                  1.4135         estimate D2E/DX2                !
 ! R2    R(1,4)                  1.093          estimate D2E/DX2                !
 ! R3    R(1,5)                  1.0922         estimate D2E/DX2                !
 ! R4    R(1,6)                  1.5167         estimate D2E/DX2                !
 ! R5    R(2,3)                  0.9725         estimate D2E/DX2                !
 ! R6    R(6,7)                  1.232          estimate D2E/DX2                !
 ! R7    R(6,8)                  1.5276         estimate D2E/DX2                !
 ! R8    R(8,9)                  1.5362         estimate D2E/DX2                !
 ! R9    R(8,16)                 1.0953         estimate D2E/DX2                !
 ! R10   R(8,17)                 1.4222         estimate D2E/DX2                !
 ! R11   R(9,10)                 1.5401         estimate D2E/DX2                !
 ! R12   R(9,19)                 1.0977         estimate D2E/DX2                !
 ! R13   R(9,20)                 1.4246         estimate D2E/DX2                !
 ! R14   R(10,11)                1.529          estimate D2E/DX2                !
 ! R15   R(10,22)                1.0957         estimate D2E/DX2                !
 ! R16   R(10,23)                1.4273         estimate D2E/DX2                !
 ! R17   R(11,12)                1.0951         estimate D2E/DX2                !
 ! R18   R(11,13)                1.0934         estimate D2E/DX2                !
 ! R19   R(11,14)                1.424          estimate D2E/DX2                !
 ! R20   R(14,15)                0.9724         estimate D2E/DX2                !
 ! R21   R(17,18)                0.9727         estimate D2E/DX2                !
 ! R22   R(20,21)                0.9719         estimate D2E/DX2                !
 ! R23   R(23,24)                0.9724         estimate D2E/DX2                !
 ! A1    A(2,1,4)              108.574          estimate D2E/DX2                !
 ! A2    A(2,1,5)              108.511          estimate D2E/DX2                !
 ! A3    A(2,1,6)              110.407          estimate D2E/DX2                !
 ! A4    A(4,1,5)              110.3838         estimate D2E/DX2                !
 ! A5    A(4,1,6)              109.4597         estimate D2E/DX2                !
 ! A6    A(5,1,6)              109.4917         estimate D2E/DX2                !
 ! A7    A(1,2,3)              107.498          estimate D2E/DX2                !
 ! A8    A(1,6,7)              121.351          estimate D2E/DX2                !
 ! A9    A(1,6,8)              117.057          estimate D2E/DX2                !
 ! A10   A(7,6,8)              121.5748         estimate D2E/DX2                !
 ! A11   A(6,8,9)              115.486          estimate D2E/DX2                !
 ! A12   A(6,8,16)             106.8055         estimate D2E/DX2                !
 ! A13   A(6,8,17)             108.4505         estimate D2E/DX2                !
 ! A14   A(9,8,16)             110.516          estimate D2E/DX2                !
 ! A15   A(9,8,17)             108.265          estimate D2E/DX2                !
 ! A16   A(16,8,17)            106.9882         estimate D2E/DX2                !
 ! A17   A(8,9,10)             115.484          estimate D2E/DX2                !
 ! A18   A(8,9,19)             106.5213         estimate D2E/DX2                !
 ! A19   A(8,9,20)             110.4787         estimate D2E/DX2                !
 ! A20   A(10,9,19)            107.567          estimate D2E/DX2                !
 ! A21   A(10,9,20)            109.894          estimate D2E/DX2                !
 ! A22   A(19,9,20)            106.4113         estimate D2E/DX2                !
 ! A23   A(9,10,11)            111.847          estimate D2E/DX2                !
 ! A24   A(9,10,22)            110.727          estimate D2E/DX2                !
 ! A25   A(9,10,23)            109.938          estimate D2E/DX2                !
 ! A26   A(11,10,22)           101.6812         estimate D2E/DX2                !
 ! A27   A(11,10,23)           108.3891         estimate D2E/DX2                !
 ! A28   A(22,10,23)           114.0276         estimate D2E/DX2                !
 ! A29   A(10,11,12)           111.125          estimate D2E/DX2                !
 ! A30   A(10,11,13)           111.8759         estimate D2E/DX2                !
 ! A31   A(10,11,14)           108.815          estimate D2E/DX2                !
 ! A32   A(12,11,13)           109.4922         estimate D2E/DX2                !
 ! A33   A(12,11,14)           107.7211         estimate D2E/DX2                !
 ! A34   A(13,11,14)           107.6593         estimate D2E/DX2                !
 ! A35   A(11,14,15)           107.0319         estimate D2E/DX2                !
 ! A36   A(8,17,18)            107.768          estimate D2E/DX2                !
 ! A37   A(9,20,21)            107.96           estimate D2E/DX2                !
 ! A38   A(10,23,24)           107.9061         estimate D2E/DX2                !
 ! D1    D(4,1,2,3)             60.0            estimate D2E/DX2                !
 ! D2    D(5,1,2,3)            -60.0            estimate D2E/DX2                !
 ! D3    D(6,1,2,3)            180.0            estimate D2E/DX2                !
 ! D4    D(2,1,6,7)             -1.694          estimate D2E/DX2                !
 ! D5    D(2,1,6,8)            179.793          estimate D2E/DX2                !
 ! D6    D(4,1,6,7)            117.7715         estimate D2E/DX2                !
 ! D7    D(4,1,6,8)            -60.7415         estimate D2E/DX2                !
 ! D8    D(5,1,6,7)           -121.102          estimate D2E/DX2                !
 ! D9    D(5,1,6,8)             60.385          estimate D2E/DX2                !
 ! D10   D(1,6,8,9)             -1.4906         estimate D2E/DX2                !
 ! D11   D(1,6,8,16)          -124.8258         estimate D2E/DX2                !
 ! D12   D(1,6,8,17)           120.1809         estimate D2E/DX2                !
 ! D13   D(7,6,8,9)            180.0            estimate D2E/DX2                !
 ! D14   D(7,6,8,16)            56.6647         estimate D2E/DX2                !
 ! D15   D(7,6,8,17)           -58.3286         estimate D2E/DX2                !
 ! D16   D(6,8,9,10)           178.812          estimate D2E/DX2                !
 ! D17   D(6,8,9,19)            59.4631         estimate D2E/DX2                !
 ! D18   D(6,8,9,20)           -55.71           estimate D2E/DX2                !
 ! D19   D(16,8,9,10)          -59.8319         estimate D2E/DX2                !
 ! D20   D(16,8,9,19)         -179.1809         estimate D2E/DX2                !
 ! D21   D(16,8,9,20)           65.6461         estimate D2E/DX2                !
 ! D22   D(17,8,9,10)           57.041          estimate D2E/DX2                !
 ! D23   D(17,8,9,19)          -62.3079         estimate D2E/DX2                !
 ! D24   D(17,8,9,20)         -177.481          estimate D2E/DX2                !
 ! D25   D(6,8,17,18)          114.8739         estimate D2E/DX2                !
 ! D26   D(9,8,17,18)         -119.126          estimate D2E/DX2                !
 ! D27   D(16,8,17,18)          -0.0001         estimate D2E/DX2                !
 ! D28   D(8,9,10,11)         -179.087          estimate D2E/DX2                !
 ! D29   D(8,9,10,22)          -66.447          estimate D2E/DX2                !
 ! D30   D(8,9,10,23)           60.45           estimate D2E/DX2                !
 ! D31   D(19,9,10,11)         -60.315          estimate D2E/DX2                !
 ! D32   D(19,9,10,22)          52.325          estimate D2E/DX2                !
 ! D33   D(19,9,10,23)         179.222          estimate D2E/DX2                !
 ! D34   D(20,9,10,11)          55.135          estimate D2E/DX2                !
 ! D35   D(20,9,10,22)         167.775          estimate D2E/DX2                !
 ! D36   D(20,9,10,23)         -65.3281         estimate D2E/DX2                !
 ! D37   D(8,9,20,21)          115.2421         estimate D2E/DX2                !
 ! D38   D(10,9,20,21)        -116.1799         estimate D2E/DX2                !
 ! D39   D(19,9,20,21)           0.0            estimate D2E/DX2                !
 ! D40   D(9,10,11,12)          62.961          estimate D2E/DX2                !
 ! D41   D(9,10,11,13)         -59.764          estimate D2E/DX2                !
 ! D42   D(9,10,11,14)        -178.59           estimate D2E/DX2                !
 ! D43   D(22,10,11,12)        -55.2198         estimate D2E/DX2                !
 ! D44   D(22,10,11,13)       -177.9447         estimate D2E/DX2                !
 ! D45   D(22,10,11,14)         63.2292         estimate D2E/DX2                !
 ! D46   D(23,10,11,12)       -175.677          estimate D2E/DX2                !
 ! D47   D(23,10,11,13)         61.598          estimate D2E/DX2                !
 ! D48   D(23,10,11,14)        -57.228          estimate D2E/DX2                !
 ! D49   D(9,10,23,24)        -125.0235         estimate D2E/DX2                !
 ! D50   D(11,10,23,24)        112.4458         estimate D2E/DX2                !
 ! D51   D(22,10,23,24)          0.0            estimate D2E/DX2                !
 ! D52   D(10,11,14,15)       -179.647          estimate D2E/DX2                !
 ! D53   D(12,11,14,15)        -59.077          estimate D2E/DX2                !
 ! D54   D(13,11,14,15)         58.9155         estimate D2E/DX2                !
 --------------------------------------------------------------------------------
 Trust Radius=3.00D-01 FncErr=1.00D-07 GrdErr=1.00D-06
 Number of steps in this run=    125 maximum allowed number of steps=    144.
 GradGradGradGradGradGradGradGradGradGradGradGradGradGradGradGradGradGrad

                          Input orientation:                          
 ---------------------------------------------------------------------
 Center     Atomic      Atomic             Coordinates (Angstroms)
 Number     Number       Type             X           Y           Z
 ---------------------------------------------------------------------
      1          6           0        0.000000    0.000000    0.000000
      2          8           0        0.000000    0.000000    1.413516
      3          1           0        0.927487    0.000000    1.705916
      4          1           0        0.518025   -0.897246   -0.348146
      5          1           0        0.517855    0.896952   -0.346765
      6          6           0       -1.421472    0.000000   -0.528838
      7          8           0       -2.388894   -0.031101    0.233292
      8          6           0       -1.598381    0.004915   -2.046186
      9          6           0       -0.298033    0.045392   -2.863171
     10          6           0       -0.475503    0.021535   -4.392866
     11          6           0        0.868280    0.042020   -5.121945
     12          1           0        1.456696   -0.851959   -4.890189
     13          1           0        1.450260    0.935079   -4.878545
     14          8           0        0.629072    0.051603   -6.525700
     15          1           0        1.497715    0.058819   -6.962591
     16          1           0       -2.230879    0.865635   -2.288466
     17          8           0       -2.322721   -1.160985   -2.418677
     18          1           0       -3.177394   -0.875136   -2.784805
     19          1           0        0.275090   -0.847631   -2.582168
     20          8           0        0.493788    1.167463   -2.484467
     21          1           0        1.314964    0.833878   -2.085668
     22          1           0       -0.890860   -0.938129   -4.720149
     23          8           0       -1.232935    1.156129   -4.812737
     24          1           0       -1.994538    0.834382   -5.324640
 ---------------------------------------------------------------------
                    Distance matrix (angstroms):
                    1          2          3          4          5
     1  C    0.000000
     2  O    1.413516   0.000000
     3  H    1.941747   0.972486   0.000000
     4  H    1.092980   2.043735   2.278570   0.000000
     5  H    1.092219   2.042373   2.277240   1.794199   0.000000
     6  C    1.516658   2.406932   3.242180   2.144609   2.144449
     7  O    2.400460   2.664716   3.628770   3.088439   3.105952
     8  C    2.596483   3.811087   4.523086   2.859442   2.856959
     9  C    2.878998   4.287299   4.730805   2.807110   2.779051
    10  C    4.418579   5.825859   6.258114   4.265093   4.257235
    11  C    5.195190   6.593021   6.828247   4.877915   4.863749
    12  H    5.173176   6.525680   6.671919   4.638244   4.958106
    13  H    5.174730   6.524390   6.671041   4.975037   4.626863
    14  O    6.556154   7.964267   8.237185   6.250985   6.237485
    15  H    7.122098   8.509158   8.687441   6.754608   6.740308
    16  H    3.311076   4.408040   5.165238   3.798561   3.365520
    17  O    3.548650   4.629106   5.378104   3.525123   4.073917
    18  H    4.314723   5.337377   6.146746   4.426502   4.768564
    19  H    2.731619   4.093854   4.419476   2.247740   2.845968
    20  O    2.789153   4.098911   4.371541   2.971107   2.154884
    21  H    2.602786   3.829983   3.901487   2.578931   1.913934
    22  H    4.894234   6.268617   6.743944   4.593587   4.947574
    23  O    5.100902   6.451588   6.963971   5.216779   4.803888
    24  H    5.746840   7.076519   7.659187   5.837551   5.576314
                    6          7          8          9         10
     6  C    0.000000
     7  O    1.231956   0.000000
     8  C    1.527634   2.412929   0.000000
     9  C    2.591001   3.737062   1.536232   0.000000
    10  C    3.978195   5.006513   2.601545   1.540140   0.000000
    11  C    5.132384   6.268420   3.942853   2.542117   1.528963
    12  H    5.294437   6.458516   4.260995   2.827210   2.178007
    13  H    5.295391   6.465561   4.263997   2.812437   2.186095
    14  O    6.337961   7.402630   5.002976   3.778053   2.402076
    15  H    7.065288   8.178909   5.810314   4.475504   3.240134
    16  H    2.121498   2.681113   1.095259   2.176919   2.867464
    17  O    2.394082   2.883393   1.422231   2.398392   2.950930
    18  H    2.989734   3.231569   1.952775   3.023943   3.269571
    19  H    2.795168   3.961104   2.126971   1.097690   2.144170
    20  O    2.975849   4.139158   2.433265   1.424584   2.427893
    21  H    3.256863   4.454697   3.029244   1.956523   3.031309
    22  H    4.327669   5.253892   2.922327   2.183375   1.095715
    23  O    4.441168   5.311136   3.018716   2.430758   1.427340
    24  H    4.901460   5.638722   3.404881   3.091838   1.958671
                   11         12         13         14         15
    11  C    0.000000
    12  H    1.095054   0.000000
    13  H    1.093389   1.787088   0.000000
    14  O    1.424023   2.043595   2.041568   0.000000
    15  H    1.945366   2.264078   2.261268   0.972351   0.000000
    16  H    4.279221   4.828799   4.501568   5.176497   6.033308
    17  O    4.351708   4.526352   4.967879   5.201066   6.060595
    18  H    4.761394   5.089987   5.392199   5.416856   6.338991
    19  H    2.755689   2.592908   3.135670   4.060218   4.637302
    20  O    2.891912   3.285233   2.588523   4.194641   4.721287
    21  H    3.169471   3.275282   2.797983   4.560295   4.941507
    22  H    2.053462   2.355283   3.002472   2.559253   3.424579
    23  O    2.398323   3.357459   2.693089   2.760668   3.644504
    24  H    2.977356   3.865684   3.475021   2.989752   3.934490
                   16         17         18         19         20
    16  H    0.000000
    17  O    2.032874   0.000000
    18  H    2.042676   0.972741   0.000000
    19  H    3.049823   2.621744   3.458535   0.000000
    20  O    2.748332   3.654958   4.211887   2.029280   0.000000
    21  H    3.551780   4.162106   4.857036   2.038461   0.971931
    22  H    3.310936   2.719681   2.996291   2.436923   3.368834
    23  O    2.729876   3.505449   3.466910   3.356282   2.898714
    24  H    3.045519   3.540313   3.282128   3.937198   3.790685
                   21         22         23         24
    21  H    0.000000
    22  H    3.866026   0.000000
    23  O    3.746003   2.124030   0.000000
    24  H    4.630739   2.173778   0.972422   0.000000
 Stoichiometry    C6H12O6
 Framework group  C1[X(C6H12O6)]
 Deg. of freedom    66
 Full point group                 C1      NOp   1
 Largest Abelian subgroup         C1      NOp   1
 Largest concise Abelian subgroup C1      NOp   1
                         Standard orientation:                         
 ---------------------------------------------------------------------
 Center     Atomic      Atomic             Coordinates (Angstroms)
 Number     Number       Type             X           Y           Z
 ---------------------------------------------------------------------
      1          6           0       -2.370744   -1.027667   -0.185053
      2          8           0       -3.757850   -1.298742   -0.163068
      3          1           0       -3.873588   -2.246284   -0.348804
      4          1           0       -1.982198   -1.280745   -1.174795
      5          1           0       -1.886172   -1.636917    0.581072
      6          6           0       -2.114168    0.440019    0.098353
      7          8           0       -3.042317    1.229887    0.278247
      8          6           0       -0.657557    0.900069    0.115858
      9          6           0        0.386384   -0.201137   -0.124018
     10          6           0        1.853445    0.267530   -0.134746
     11          6           0        2.818054   -0.888314   -0.401730
     12          1           0        2.650703   -1.320907   -1.393697
     13          1           0        2.735113   -1.671604    0.356608
     14          8           0        4.151948   -0.391095   -0.365108
     15          1           0        4.741405   -1.143652   -0.543053
     16          1           0       -0.489822    1.383651    1.084158
     17          8           0       -0.489028    1.899094   -0.882284
     18          1           0       -0.271980    2.734060   -0.432900
     19          1           0        0.167935   -0.628665   -1.111146
     20          8           0        0.221834   -1.257515    0.817486
     21          1           0       -0.036050   -2.057078    0.328767
     22          1           0        2.045841    0.919973   -0.993753
     23          8           0        2.187262    0.850900    1.124438
     24          1           0        2.531552    1.744948    0.957865
 ---------------------------------------------------------------------
 Rotational constants (GHZ):      1.8315460      0.4492024      0.3938483
 Standard basis: 6-31G(d) (6D, 7F)
 There are   204 symmetry adapted basis functions of A   symmetry.
 Integral buffers will be    131072 words long.
 Raffenetti 2 integral format.
 Two-electron integral symmetry is turned on.
   204 basis functions,   384 primitive gaussians,   204 cartesian basis functions
    48 alpha electrons       48 beta electrons
       nuclear repulsion energy       779.8043416485 Hartrees.
 NAtoms=   24 NActive=   24 NUniq=   24 SFac= 1.00D+00 NAtFMM=   50 NAOKFM=F Big=F
 One-electron integrals computed using PRISM.
 NBasis=   204 RedAO= T  NBF=   204
 NBsUse=   204 1.00D-06 NBFU=   204
 Harris functional with IExCor=  402 diagonalized for initial guess.
 ExpMin= 1.61D-01 ExpMax= 5.48D+03 ExpMxC= 8.25D+02 IAcc=1 IRadAn=         1 AccDes= 0.00D+00
 HarFok:  IExCor=  402 AccDes= 0.00D+00 IRadAn=         1 IDoV= 1
 ScaDFX=  1.000000  1.000000  1.000000  1.000000
 FoFCou: FMM=F IPFlag=           0 FMFlag=      100000 FMFlg1=           0
         NFxFlg=           0 DoJE=T BraDBF=F KetDBF=T FulRan=T
         Omega=  0.000000  0.000000  1.000000  0.000000  0.000000 ICntrl=     500 IOpCl=  0
         NMat0=    1 NMatS0=    1 NMatT0=    0 NMatD0=    1 NMtDS0=    0 NMtDT0=    0
         I1Cent=           4 NGrid=           0.
 Petite list used in FoFCou.
 Initial guess orbital symmetries:
       Occupied  (A) (A) (A) (A) (A) (A) (A) (A) (A) (A) (A) (A)
                 (A) (A) (A) (A) (A) (A) (A) (A) (A) (A) (A) (A)
                 (A) (A) (A) (A) (A) (A) (A) (A) (A) (A) (A) (A)
                 (A) (A) (A) (A) (A) (A) (A) (A) (A) (A) (A) (A)
       Virtual   (A) (A) (A) (A) (A) (A) (A) (A) (A) (A) (A) (A)
                 (A) (A) (A) (A) (A) (A) (A) (A) (A) (A) (A) (A)
                 (A) (A) (A) (A) (A) (A) (A) (A) (A) (A) (A) (A)
                 (A) (A) (A) (A) (A) (A) (A) (A) (A) (A) (A) (A)
                 (A) (A) (A) (A) (A) (A) (A) (A) (A) (A) (A) (A)
                 (A) (A) (A) (A) (A) (A) (A) (A) (A) (A) (A) (A)
                 (A) (A) (A) (A) (A) (A) (A) (A) (A) (A) (A) (A)
                 (A) (A) (A) (A) (A) (A) (A) (A) (A) (A) (A) (A)
                 (A) (A) (A) (A) (A) (A) (A) (A) (A) (A) (A) (A)
                 (A) (A) (A) (A) (A) (A) (A) (A) (A) (A) (A) (A)
                 (A) (A) (A) (A) (A) (A) (A) (A) (A) (A) (A) (A)
                 (A) (A) (A) (A) (A) (A) (A) (A) (A) (A) (A) (A)
                 (A) (A) (A) (A) (A) (A) (A) (A) (A) (A) (A) (A)
 The electronic state of the initial guess is 1-A.
 Requested convergence on RMS density matrix=1.00D-08 within 128 cycles.
 Requested convergence on MAX density matrix=1.00D-06.
 Requested convergence on             energy=1.00D-06.
 No special actions if energy rises.
 Keep R1 ints in memory in canonical form, NReq=223281102.
 Integral accuracy reduced to 1.0D-05 until final iterations.
 Initial convergence to 1.0D-05 achieved.  Increase integral accuracy.
 SCF Done:  E(RB3LYP) =  -687.090719877     A.U. after   14 cycles
             Convg  =    0.6272D-08             -V/T =  2.0085

 **********************************************************************

            Population analysis using the SCF density.

 **********************************************************************

 Orbital symmetries:
       Occupied  (A) (A) (A) (A) (A) (A) (A) (A) (A) (A) (A) (A)
                 (A) (A) (A) (A) (A) (A) (A) (A) (A) (A) (A) (A)
                 (A) (A) (A) (A) (A) (A) (A) (A) (A) (A) (A) (A)
                 (A) (A) (A) (A) (A) (A) (A) (A) (A) (A) (A) (A)
       Virtual   (A) (A) (A) (A) (A) (A) (A) (A) (A) (A) (A) (A)
                 (A) (A) (A) (A) (A) (A) (A) (A) (A) (A) (A) (A)
                 (A) (A) (A) (A) (A) (A) (A) (A) (A) (A) (A) (A)
                 (A) (A) (A) (A) (A) (A) (A) (A) (A) (A) (A) (A)
                 (A) (A) (A) (A) (A) (A) (A) (A) (A) (A) (A) (A)
                 (A) (A) (A) (A) (A) (A) (A) (A) (A) (A) (A) (A)
                 (A) (A) (A) (A) (A) (A) (A) (A) (A) (A) (A) (A)
                 (A) (A) (A) (A) (A) (A) (A) (A) (A) (A) (A) (A)
                 (A) (A) (A) (A) (A) (A) (A) (A) (A) (A) (A) (A)
                 (A) (A) (A) (A) (A) (A) (A) (A) (A) (A) (A) (A)
                 (A) (A) (A) (A) (A) (A) (A) (A) (A) (A) (A) (A)
                 (A) (A) (A) (A) (A) (A) (A) (A) (A) (A) (A) (A)
                 (A) (A) (A) (A) (A) (A) (A) (A) (A) (A) (A) (A)
 The electronic state is 1-A.
 Alpha  occ. eigenvalues --  -19.16522 -19.16237 -19.15107 -19.14593 -19.14241
 Alpha  occ. eigenvalues --  -19.14199 -10.27704 -10.25383 -10.25067 -10.24465
 Alpha  occ. eigenvalues --  -10.24321 -10.23062  -1.05306  -1.04116  -1.02940
 Alpha  occ. eigenvalues --   -1.02606  -1.01095  -1.00771  -0.78567  -0.75460
 Alpha  occ. eigenvalues --   -0.70969  -0.65094  -0.58878  -0.56839  -0.54217
 Alpha  occ. eigenvalues --   -0.53236  -0.52611  -0.51795  -0.49552  -0.48006
 Alpha  occ. eigenvalues --   -0.47102  -0.44720  -0.43651  -0.42615  -0.41306
 Alpha  occ. eigenvalues --   -0.40248  -0.36999  -0.35888  -0.35072  -0.34638
 Alpha  occ. eigenvalues --   -0.33183  -0.32946  -0.31444  -0.28855  -0.27729
 Alpha  occ. eigenvalues --   -0.26898  -0.26087  -0.24262
 Alpha virt. eigenvalues --   -0.03054   0.03210   0.04957   0.06148   0.06888
 Alpha virt. eigenvalues --    0.09306   0.11343   0.12959   0.15267   0.15573
 Alpha virt. eigenvalues --    0.16304   0.16957   0.18351   0.18795   0.20481
 Alpha virt. eigenvalues --    0.21177   0.22367   0.22915   0.25476   0.27850
 Alpha virt. eigenvalues --    0.29372   0.30818   0.34655   0.37561   0.53121
 Alpha virt. eigenvalues --    0.54047   0.54472   0.55192   0.55867   0.58212
 Alpha virt. eigenvalues --    0.59388   0.61326   0.62322   0.64758   0.65612
 Alpha virt. eigenvalues --    0.67331   0.68915   0.71086   0.71697   0.75406
 Alpha virt. eigenvalues --    0.77414   0.78874   0.80452   0.80805   0.81863
 Alpha virt. eigenvalues --    0.82542   0.82903   0.84293   0.85079   0.86834
 Alpha virt. eigenvalues --    0.89526   0.90253   0.91279   0.92446   0.93120
 Alpha virt. eigenvalues --    0.94190   0.95753   0.96417   0.99213   0.99336
 Alpha virt. eigenvalues --    1.00245   1.01263   1.03631   1.05027   1.06086
 Alpha virt. eigenvalues --    1.08496   1.09644   1.11768   1.14076   1.16099
 Alpha virt. eigenvalues --    1.18349   1.19083   1.22977   1.27449   1.30201
 Alpha virt. eigenvalues --    1.32868   1.33109   1.37351   1.40622   1.42099
 Alpha virt. eigenvalues --    1.48378   1.51417   1.53664   1.56443   1.60533
 Alpha virt. eigenvalues --    1.62564   1.63240   1.66064   1.68570   1.70056
 Alpha virt. eigenvalues --    1.71251   1.73815   1.74095   1.75243   1.76748
 Alpha virt. eigenvalues --    1.79373   1.81171   1.81382   1.81831   1.88034
 Alpha virt. eigenvalues --    1.88800   1.91119   1.91818   1.94970   1.97155
 Alpha virt. eigenvalues --    1.97775   2.00160   2.01151   2.07648   2.08722
 Alpha virt. eigenvalues --    2.10273   2.11852   2.15799   2.16272   2.17672
 Alpha virt. eigenvalues --    2.19556   2.23543   2.24603   2.29434   2.32580
 Alpha virt. eigenvalues --    2.34866   2.36284   2.38661   2.42597   2.45147
 Alpha virt. eigenvalues --    2.49009   2.49814   2.52349   2.53880   2.54763
 Alpha virt. eigenvalues --    2.57876   2.62075   2.66161   2.67073   2.68291
 Alpha virt. eigenvalues --    2.71732   2.79669   2.86570   2.89272   2.92200
 Alpha virt. eigenvalues --    2.96938   2.99416   3.01636   3.05039   3.68364
 Alpha virt. eigenvalues --    3.73323   3.78959   3.81313   3.90989   4.04987
 Alpha virt. eigenvalues --    4.16488   4.27616   4.39380   4.42039   4.55171
 Alpha virt. eigenvalues --    4.71656
          Condensed to atoms (all electrons):
              1          2          3          4          5          6
     1  C    5.196952   0.218091  -0.022302   0.346405   0.336700   0.261533
     2  O    0.218091   8.253889   0.231903  -0.037583  -0.031981  -0.033213
     3  H   -0.022302   0.231903   0.400558  -0.004246  -0.003985   0.006556
     4  H    0.346405  -0.037583  -0.004246   0.627952  -0.047000  -0.038216
     5  H    0.336700  -0.031981  -0.003985  -0.047000   0.588884  -0.026412
     6  C    0.261533  -0.033213   0.006556  -0.038216  -0.026412   4.645582
     7  O   -0.081201   0.002749   0.000236   0.000041   0.000223   0.562670
     8  C   -0.126166   0.001847  -0.000226   0.007651   0.004834   0.266219
     9  C    0.006815   0.000107   0.000016  -0.003246  -0.006224  -0.041304
    10  C   -0.000039   0.000000   0.000000   0.000163   0.000398   0.003164
    11  C   -0.000005   0.000000   0.000000  -0.000008  -0.000018   0.000035
    12  H    0.000000   0.000000   0.000000  -0.000010  -0.000001   0.000001
    13  H    0.000003   0.000000   0.000000   0.000001  -0.000013  -0.000003
    14  O    0.000000   0.000000   0.000000   0.000000   0.000000   0.000000
    15  H    0.000000   0.000000   0.000000   0.000000   0.000000   0.000000
    16  H    0.006256  -0.000045   0.000005   0.000158  -0.000418  -0.028984
    17  O    0.002565  -0.000005   0.000001  -0.000085   0.000108  -0.042824
    18  H   -0.000226   0.000001   0.000000  -0.000017   0.000000   0.002347
    19  H   -0.000106  -0.000060   0.000007   0.006162   0.000415  -0.007557
    20  O   -0.016017   0.000278   0.000011  -0.000708   0.022423   0.002361
    21  H    0.006658  -0.000199  -0.000053   0.000591  -0.000483  -0.001841
    22  H   -0.000011   0.000000   0.000000  -0.000002  -0.000009   0.000147
    23  O   -0.000002   0.000000   0.000000  -0.000001  -0.000004   0.000317
    24  H    0.000000   0.000000   0.000000   0.000000   0.000001   0.000003
              7          8          9         10         11         12
     1  C   -0.081201  -0.126166   0.006815  -0.000039  -0.000005   0.000000
     2  O    0.002749   0.001847   0.000107   0.000000   0.000000   0.000000
     3  H    0.000236  -0.000226   0.000016   0.000000   0.000000   0.000000
     4  H    0.000041   0.007651  -0.003246   0.000163  -0.000008  -0.000010
     5  H    0.000223   0.004834  -0.006224   0.000398  -0.000018  -0.000001
     6  C    0.562670   0.266219  -0.041304   0.003164   0.000035   0.000001
     7  O    8.001544  -0.058657   0.002976  -0.000049   0.000000   0.000000
     8  C   -0.058657   5.185183   0.263426  -0.026044   0.004766  -0.000162
     9  C    0.002976   0.263426   5.131062   0.276195  -0.052432   0.005100
    10  C   -0.000049  -0.026044   0.276195   4.941077   0.341007  -0.038494
    11  C    0.000000   0.004766  -0.052432   0.341007   4.930260   0.341864
    12  H    0.000000  -0.000162   0.005100  -0.038494   0.341864   0.682842
    13  H    0.000000  -0.000015  -0.006064  -0.030246   0.354061  -0.052370
    14  O    0.000000  -0.000024   0.002085  -0.045553   0.242240  -0.041657
    15  H    0.000000   0.000002  -0.000235   0.006256  -0.022880  -0.004682
    16  H   -0.001081   0.343756  -0.044180  -0.008867   0.000304  -0.000009
    17  O   -0.001047   0.209076  -0.058626   0.007879   0.000232  -0.000002
    18  H    0.000814  -0.014080   0.003636   0.000705   0.000019  -0.000001
    19  H   -0.000004  -0.047644   0.344169  -0.041965   0.000119   0.003491
    20  O   -0.000058  -0.037731   0.182595  -0.049281  -0.004475   0.000110
    21  H    0.000009   0.006723  -0.016380   0.002347   0.000674  -0.000020
    22  H    0.000000  -0.003268  -0.038179   0.347048  -0.055000  -0.006199
    23  O    0.000000   0.003179  -0.060372   0.230404  -0.055773   0.004189
    24  H    0.000000   0.000499   0.004681  -0.018097   0.003952  -0.000246
             13         14         15         16         17         18
     1  C    0.000003   0.000000   0.000000   0.006256   0.002565  -0.000226
     2  O    0.000000   0.000000   0.000000  -0.000045  -0.000005   0.000001
     3  H    0.000000   0.000000   0.000000   0.000005   0.000001   0.000000
     4  H    0.000001   0.000000   0.000000   0.000158  -0.000085  -0.000017
     5  H   -0.000013   0.000000   0.000000  -0.000418   0.000108   0.000000
     6  C   -0.000003   0.000000   0.000000  -0.028984  -0.042824   0.002347
     7  O    0.000000   0.000000   0.000000  -0.001081  -0.001047   0.000814
     8  C   -0.000015  -0.000024   0.000002   0.343756   0.209076  -0.014080
     9  C   -0.006064   0.002085  -0.000235  -0.044180  -0.058626   0.003636
    10  C   -0.030246  -0.045553   0.006256  -0.008867   0.007879   0.000705
    11  C    0.354061   0.242240  -0.022880   0.000304   0.000232   0.000019
    12  H   -0.052370  -0.041657  -0.004682  -0.000009  -0.000002  -0.000001
    13  H    0.620632  -0.040163  -0.003604   0.000009  -0.000008   0.000001
    14  O   -0.040163   8.269108   0.235271  -0.000001   0.000000   0.000000
    15  H   -0.003604   0.235271   0.396997   0.000000   0.000000   0.000000
    16  H    0.000009  -0.000001   0.000000   0.579165  -0.025559  -0.012986
    17  O   -0.000008   0.000000   0.000000  -0.025559   8.275610   0.235582
    18  H    0.000001   0.000000   0.000000  -0.012986   0.235582   0.375823
    19  H    0.000128  -0.000027  -0.000002   0.007162   0.002721  -0.000267
    20  O    0.011834   0.000068   0.000009   0.001796   0.001377  -0.000104
    21  H    0.000047  -0.000002  -0.000002  -0.000375  -0.000139   0.000003
    22  H    0.008040   0.004614  -0.000229   0.000562   0.008109  -0.000252
    23  O   -0.001902   0.003479   0.000051   0.011707  -0.000604   0.000354
    24  H   -0.000264   0.000965  -0.000005  -0.000612   0.000210   0.000167
             19         20         21         22         23         24
     1  C   -0.000106  -0.016017   0.006658  -0.000011  -0.000002   0.000000
     2  O   -0.000060   0.000278  -0.000199   0.000000   0.000000   0.000000
     3  H    0.000007   0.000011  -0.000053   0.000000   0.000000   0.000000
     4  H    0.006162  -0.000708   0.000591  -0.000002  -0.000001   0.000000
     5  H    0.000415   0.022423  -0.000483  -0.000009  -0.000004   0.000001
     6  C   -0.007557   0.002361  -0.001841   0.000147   0.000317   0.000003
     7  O   -0.000004  -0.000058   0.000009   0.000000   0.000000   0.000000
     8  C   -0.047644  -0.037731   0.006723  -0.003268   0.003179   0.000499
     9  C    0.344169   0.182595  -0.016380  -0.038179  -0.060372   0.004681
    10  C   -0.041965  -0.049281   0.002347   0.347048   0.230404  -0.018097
    11  C    0.000119  -0.004475   0.000674  -0.055000  -0.055773   0.003952
    12  H    0.003491   0.000110  -0.000020  -0.006199   0.004189  -0.000246
    13  H    0.000128   0.011834   0.000047   0.008040  -0.001902  -0.000264
    14  O   -0.000027   0.000068  -0.000002   0.004614   0.003479   0.000965
    15  H   -0.000002   0.000009  -0.000002  -0.000229   0.000051  -0.000005
    16  H    0.007162   0.001796  -0.000375   0.000562   0.011707  -0.000612
    17  O    0.002721   0.001377  -0.000139   0.008109  -0.000604   0.000210
    18  H   -0.000267  -0.000104   0.000003  -0.000252   0.000354   0.000167
    19  H    0.661148  -0.035536  -0.017068   0.000298   0.003468  -0.000235
    20  O   -0.035536   8.309870   0.224064   0.003326   0.000753  -0.000061
    21  H   -0.017068   0.224064   0.397707  -0.000136  -0.000074  -0.000004
    22  H    0.000298   0.003326  -0.000136   0.625751  -0.028556  -0.011784
    23  O    0.003468   0.000753  -0.000074  -0.028556   8.268618   0.234096
    24  H   -0.000235  -0.000061  -0.000004  -0.011784   0.234096   0.385248
 Mulliken atomic charges:
              1
     1  C   -0.135904
     2  O   -0.605779
     3  H    0.391519
     4  H    0.141997
     5  H    0.162562
     6  C    0.469420
     7  O   -0.429166
     8  C    0.016853
     9  C    0.104375
    10  C    0.101992
    11  C   -0.028941
    12  H    0.106255
    13  H    0.139894
    14  O   -0.630403
    15  H    0.393053
    16  H    0.172236
    17  O   -0.614572
    18  H    0.408483
    19  H    0.121183
    20  O   -0.616902
    21  H    0.397952
    22  H    0.145731
    23  O   -0.613328
    24  H    0.401488
 Sum of Mulliken atomic charges =   0.00000
 Mulliken charges with hydrogens summed into heavy atoms:
              1
     1  C    0.168656
     2  O   -0.214260
     6  C    0.469420
     7  O   -0.429166
     8  C    0.189089
     9  C    0.225558
    10  C    0.247723
    11  C    0.217208
    14  O   -0.237350
    17  O   -0.206089
    20  O   -0.218950
    23  O   -0.211840
 Sum of Mulliken charges with hydrogens summed into heavy atoms =   0.00000
 Electronic spatial extent (au):  <R**2>=           2753.6073
 Charge=              0.0000 electrons
 Dipole moment (field-independent basis, Debye):
    X=              3.2332    Y=             -3.0736    Z=             -2.0739  Tot=              4.9195
 Quadrupole moment (field-independent basis, Debye-Ang):
   XX=            -84.3749   YY=            -52.2240   ZZ=            -74.5466
   XY=              7.6707   XZ=             -2.6303   YZ=              6.2116
 Traceless Quadrupole moment (field-independent basis, Debye-Ang):
   XX=            -13.9931   YY=             18.1578   ZZ=             -4.1648
   XY=              7.6707   XZ=             -2.6303   YZ=              6.2116
 Octapole moment (field-independent basis, Debye-Ang**2):
  XXX=             83.1682  YYY=              0.4330  ZZZ=             -0.0516  XYY=              7.6702
  XXY=            -57.9580  XXZ=            -17.7675  XZZ=             -4.0217  YZZ=             -1.2446
  YYZ=              2.2034  XYZ=              3.0137
 Hexadecapole moment (field-independent basis, Debye-Ang**3):
 XXXX=          -2569.4227 YYYY=           -412.1531 ZZZZ=           -208.8219 XXXY=            -17.3478
 XXXZ=            -11.8547 YYYX=             88.8821 YYYZ=             12.6078 ZZZX=             -3.1530
 ZZZY=              6.0607 XXYY=           -371.4041 XXZZ=           -447.6365 YYZZ=           -130.3932
 XXYZ=             37.7279 YYXZ=             13.6359 ZZXY=              4.0099
 N-N= 7.798043416485D+02 E-N=-3.171467353806D+03  KE= 6.813000735011D+02
 Calling FoFJK, ICntrl=      2127 FMM=F ISym2X=0 I1Cent= 0 IOpClX= 0 NMat=1 NMatS=1 NMatT=0.
 ***** Axes restored to original set *****
 -------------------------------------------------------------------
 Center     Atomic                   Forces (Hartrees/Bohr)
 Number     Number              X              Y              Z
 -------------------------------------------------------------------
      1        6           0.004206026    0.004707199    0.026363644
      2        8          -0.003425467   -0.002378578    0.007192732
      3        1          -0.003890912    0.000299354   -0.001868298
      4        1           0.002762968   -0.003778797   -0.010281310
      5        1          -0.001719490   -0.000959200   -0.004899951
      6        6          -0.017729300   -0.001448555    0.028167851
      7        8           0.023819424    0.001574381   -0.025218622
      8        6          -0.012183468    0.006687073   -0.013026560
      9        6           0.011205361   -0.011851903    0.000283090
     10        6           0.008887310    0.000890108   -0.006942565
     11        6           0.010379894    0.008325085   -0.009817475
     12        1           0.001500643   -0.002999200    0.009925192
     13        1          -0.000149971    0.001649330    0.008673634
     14        8          -0.005579917   -0.003517401   -0.005690024
     15        1          -0.004067996    0.000429595    0.001701536
     16        1           0.007203633    0.007378416    0.000516696
     17        8          -0.005766651   -0.007900864   -0.005359786
     18        1           0.004590688   -0.003416997    0.004664923
     19        1          -0.004012374   -0.006619336   -0.004702481
     20        8           0.004640125    0.011487423   -0.001878197
     21        1          -0.003955077    0.003445240   -0.006039670
     22        1          -0.012901339    0.002144389    0.005381650
     23        8          -0.009712836   -0.006738884    0.002616424
     24        1           0.005898727    0.002592122    0.000237565
 -------------------------------------------------------------------
 Cartesian Forces:  Max     0.028167851 RMS     0.008806760

 GradGradGradGradGradGradGradGradGradGradGradGradGradGradGradGradGradGrad
 Berny optimization.
 Internal  Forces:  Max     0.037686202 RMS     0.008527154
 Search for a local minimum.
 Step number   1 out of a maximum of  125
 All quantities printed in internal units (Hartrees-Bohrs-Radians)
 Mixed Optimization -- RFO/linear search
 Second derivative matrix not updated -- first step.
 ITU=  0
     Eigenvalues ---    0.00235   0.00287   0.00383   0.00400   0.00474
     Eigenvalues ---    0.00546   0.01330   0.01367   0.01374   0.01398
     Eigenvalues ---    0.01513   0.03721   0.04408   0.04529   0.04671
     Eigenvalues ---    0.04838   0.05219   0.05249   0.05567   0.06358
     Eigenvalues ---    0.07013   0.07362   0.07684   0.08477   0.11472
     Eigenvalues ---    0.11550   0.13692   0.13970   0.16000   0.16000
     Eigenvalues ---    0.16000   0.16000   0.16000   0.16590   0.17760
     Eigenvalues ---    0.18266   0.19825   0.19831   0.20268   0.22028
     Eigenvalues ---    0.22170   0.24991   0.25000   0.28507   0.28855
     Eigenvalues ---    0.29519   0.29643   0.30691   0.33939   0.34160
     Eigenvalues ---    0.34212   0.34235   0.34424   0.34470   0.34557
     Eigenvalues ---    0.41374   0.41777   0.41860   0.42126   0.43452
     Eigenvalues ---    0.52821   0.52872   0.52885   0.52899   0.52984
     Eigenvalues ---    0.90276
 RFO step:  Lambda=-3.54876869D-02 EMin= 2.34970769D-03
 Linear search not attempted -- first point.
 Maximum step size (   0.300) exceeded in Quadratic search.
    -- Step size scaled by   0.895
 Iteration  1 RMS(Cart)=  0.24671880 RMS(Int)=  0.01215917
 Iteration  2 RMS(Cart)=  0.03403932 RMS(Int)=  0.00074971
 Iteration  3 RMS(Cart)=  0.00061037 RMS(Int)=  0.00071908
 Iteration  4 RMS(Cart)=  0.00000039 RMS(Int)=  0.00071908
 Variable       Old X    -DE/DX   Delta X   Delta X   Delta X     New X
                                 (Linear)    (Quad)   (Total)
    R1        2.67116   0.00532   0.00000   0.01013   0.01013   2.68129
    R2        2.06543   0.00768   0.00000   0.01808   0.01808   2.08352
    R3        2.06400  -0.00004   0.00000  -0.00010  -0.00010   2.06389
    R4        2.86607   0.00383   0.00000   0.01000   0.01000   2.87606
    R5        1.83773  -0.00427   0.00000  -0.00677  -0.00677   1.83096
    R6        2.32806  -0.03435   0.00000  -0.03275  -0.03275   2.29531
    R7        2.88681   0.01980   0.00000   0.05336   0.05336   2.94017
    R8        2.90306   0.00510   0.00000   0.01408   0.01408   2.91714
    R9        2.06974   0.00152   0.00000   0.00361   0.00361   2.07335
   R10        2.68763   0.01006   0.00000   0.01970   0.01970   2.70733
   R11        2.91044  -0.00542   0.00000  -0.01513  -0.01513   2.89531
   R12        2.07433   0.00209   0.00000   0.00498   0.00498   2.07931
   R13        2.69207   0.01004   0.00000   0.01981   0.01981   2.71189
   R14        2.88932  -0.00041   0.00000  -0.00110  -0.00110   2.88822
   R15        2.07060   0.00141   0.00000   0.00334   0.00334   2.07394
   R16        2.69728  -0.00211   0.00000  -0.00421  -0.00421   2.69307
   R17        2.06935   0.00536   0.00000   0.01268   0.01268   2.08203
   R18        2.06621   0.00320   0.00000   0.00753   0.00753   2.07373
   R19        2.69101   0.00553   0.00000   0.01090   0.01090   2.70191
   R20        1.83748  -0.00440   0.00000  -0.00697  -0.00697   1.83051
   R21        1.83821  -0.00680   0.00000  -0.01078  -0.01078   1.82743
   R22        1.83668  -0.00700   0.00000  -0.01108  -0.01108   1.82560
   R23        1.83761  -0.00560   0.00000  -0.00888  -0.00888   1.82873
    A1        1.89497   0.00723   0.00000   0.03762   0.03719   1.93217
    A2        1.89387   0.00775   0.00000   0.04207   0.04171   1.93559
    A3        1.92697  -0.00910   0.00000  -0.02889  -0.02872   1.89824
    A4        1.92656  -0.00203   0.00000  -0.01428  -0.01537   1.91119
    A5        1.91043  -0.00203   0.00000  -0.01934  -0.01930   1.89114
    A6        1.91099  -0.00175   0.00000  -0.01655  -0.01646   1.89453
    A7        1.87619  -0.00113   0.00000  -0.00516  -0.00516   1.87104
    A8        2.11798  -0.01292   0.00000  -0.04073  -0.04093   2.07705
    A9        2.04303   0.03769   0.00000   0.11784   0.11767   2.16070
   A10        2.12188  -0.02480   0.00000  -0.07796  -0.07812   2.04376
   A11        2.01561   0.03398   0.00000   0.13152   0.13221   2.14782
   A12        1.86411  -0.00786   0.00000  -0.02388  -0.02301   1.84109
   A13        1.89282  -0.01528   0.00000  -0.05733  -0.05629   1.83652
   A14        1.92887  -0.01224   0.00000  -0.05510  -0.05529   1.87358
   A15        1.88958  -0.01057   0.00000  -0.03931  -0.03831   1.85127
   A16        1.86730   0.01086   0.00000   0.03972   0.03796   1.90526
   A17        2.01558  -0.01599   0.00000  -0.08053  -0.08103   1.93455
   A18        1.85915   0.00448   0.00000   0.02902   0.02656   1.88571
   A19        1.92822   0.01014   0.00000   0.03250   0.02908   1.95730
   A20        1.87740   0.00159   0.00000  -0.00962  -0.00895   1.86844
   A21        1.91801  -0.00226   0.00000  -0.02634  -0.02634   1.89167
   A22        1.85723   0.00354   0.00000   0.06832   0.06706   1.92429
   A23        1.95210  -0.00359   0.00000  -0.00610  -0.00591   1.94619
   A24        1.93255  -0.00337   0.00000  -0.02917  -0.02973   1.90282
   A25        1.91878   0.00111   0.00000  -0.00373  -0.00403   1.91475
   A26        1.77467   0.00776   0.00000   0.06269   0.06293   1.83760
   A27        1.89175   0.00226   0.00000   0.01515   0.01514   1.90689
   A28        1.99016  -0.00385   0.00000  -0.03395  -0.03521   1.95495
   A29        1.93950  -0.00299   0.00000  -0.02931  -0.02937   1.91013
   A30        1.95260  -0.00296   0.00000  -0.02470  -0.02456   1.92804
   A31        1.89918  -0.01201   0.00000  -0.03821  -0.03799   1.86119
   A32        1.91100  -0.00017   0.00000  -0.00478  -0.00677   1.90423
   A33        1.88009   0.00843   0.00000   0.04253   0.04158   1.92167
   A34        1.87901   0.01050   0.00000   0.05982   0.05923   1.93824
   A35        1.86806   0.00057   0.00000   0.00262   0.00262   1.87068
   A36        1.88091   0.00254   0.00000   0.01162   0.01162   1.89252
   A37        1.88426   0.00207   0.00000   0.00945   0.00945   1.89371
   A38        1.88332   0.00112   0.00000   0.00513   0.00513   1.88844
    D1        1.04720   0.00342   0.00000   0.01873   0.01956   1.06676
    D2       -1.04720  -0.00284   0.00000  -0.01037  -0.01119  -1.05839
    D3        3.14159  -0.00005   0.00000   0.00107   0.00107  -3.14052
    D4       -0.02957   0.00136   0.00000   0.02680   0.02660  -0.00296
    D5        3.13798   0.00314   0.00000   0.06455   0.06469  -3.08052
    D6        2.05550   0.00339   0.00000   0.04323   0.04299   2.09849
    D7       -1.06014   0.00517   0.00000   0.08098   0.08107  -0.97907
    D8       -2.11363  -0.00148   0.00000   0.00314   0.00307  -2.11056
    D9        1.05392   0.00030   0.00000   0.04088   0.04115   1.09507
   D10       -0.02602  -0.00006   0.00000  -0.02453  -0.02345  -0.04947
   D11       -2.17862  -0.00107   0.00000  -0.02346  -0.02346  -2.20208
   D12        2.09755  -0.00222   0.00000  -0.02944  -0.03000   2.06755
   D13        3.14159   0.00154   0.00000   0.01271   0.01344  -3.12815
   D14        0.98899   0.00053   0.00000   0.01378   0.01343   1.00241
   D15       -1.01803  -0.00063   0.00000   0.00780   0.00689  -1.01113
   D16        3.12086  -0.00413   0.00000  -0.04470  -0.04440   3.07646
   D17        1.03783   0.00040   0.00000  -0.00426  -0.00347   1.03436
   D18       -0.97232  -0.01134   0.00000  -0.11727  -0.11760  -1.08992
   D19       -1.04426   0.00059   0.00000  -0.02386  -0.02464  -1.06890
   D20       -3.12730   0.00512   0.00000   0.01658   0.01630  -3.11100
   D21        1.14574  -0.00663   0.00000  -0.09643  -0.09783   1.04791
   D22        0.99555   0.00063   0.00000  -0.02988  -0.02927   0.96629
   D23       -1.08748   0.00516   0.00000   0.01056   0.01167  -1.07581
   D24       -3.09763  -0.00659   0.00000  -0.10245  -0.10246   3.08310
   D25        2.00493  -0.01361   0.00000  -0.07207  -0.07274   1.93219
   D26       -2.07914   0.01165   0.00000   0.02791   0.02881  -2.05033
   D27        0.00000  -0.00249   0.00000  -0.03635  -0.03658  -0.03658
   D28       -3.12566  -0.00076   0.00000  -0.02545  -0.02487   3.13265
   D29       -1.15972   0.00466   0.00000   0.03038   0.03073  -1.12899
   D30        1.05505  -0.00201   0.00000  -0.03802  -0.03734   1.01771
   D31       -1.05269  -0.00389   0.00000  -0.04563  -0.04516  -1.09786
   D32        0.91324   0.00152   0.00000   0.01019   0.01044   0.92368
   D33        3.12801  -0.00514   0.00000  -0.05821  -0.05763   3.07038
   D34        0.96229  -0.00001   0.00000   0.01626   0.01534   0.97762
   D35        2.92823   0.00541   0.00000   0.07208   0.07094   2.99916
   D36       -1.14019  -0.00126   0.00000   0.00368   0.00286  -1.13733
   D37        2.01135   0.01126   0.00000   0.10232   0.10375   2.11510
   D38       -2.02772  -0.00373   0.00000   0.00131   0.00092  -2.02680
   D39        0.00000  -0.00106   0.00000   0.01409   0.01306   0.01306
   D40        1.09888  -0.00357   0.00000  -0.04493  -0.04484   1.05404
   D41       -1.04308   0.00094   0.00000   0.00024   0.00015  -1.04293
   D42       -3.11698  -0.00250   0.00000  -0.03408  -0.03395   3.13225
   D43       -0.96377  -0.00241   0.00000  -0.04359  -0.04333  -1.00709
   D44       -3.10572   0.00210   0.00000   0.00158   0.00166  -3.10406
   D45        1.10356  -0.00134   0.00000  -0.03274  -0.03244   1.07112
   D46       -3.06614  -0.00293   0.00000  -0.04328  -0.04348  -3.10962
   D47        1.07509   0.00157   0.00000   0.00189   0.00150   1.07659
   D48       -0.99882  -0.00186   0.00000  -0.03243  -0.03260  -1.03141
   D49       -2.18207  -0.00041   0.00000  -0.01103  -0.01134  -2.19341
   D50        1.96255   0.00187   0.00000  -0.01089  -0.01123   1.95132
   D51        0.00000  -0.00693   0.00000  -0.07845  -0.07780  -0.07780
   D52       -3.13543   0.00014   0.00000   0.00039   0.00035  -3.13508
   D53       -1.03109  -0.00540   0.00000  -0.03184  -0.03331  -1.06440
   D54        1.02827   0.00446   0.00000   0.01686   0.01837   1.04664
         Item               Value     Threshold  Converged?
 Maximum Force            0.037686     0.000450     NO 
 RMS     Force            0.008527     0.000300     NO 
 Maximum Displacement     0.961515     0.001800     NO 
 RMS     Displacement     0.269684     0.001200     NO 
 Predicted change in Energy=-2.100814D-02
 GradGradGradGradGradGradGradGradGradGradGradGradGradGradGradGradGradGrad

                          Input orientation:                          
 ---------------------------------------------------------------------
 Center     Atomic      Atomic             Coordinates (Angstroms)
 Number     Number       Type             X           Y           Z
 ---------------------------------------------------------------------
      1          6           0       -0.065249   -0.033449    0.305271
      2          8           0       -0.409638   -0.124390    1.678713
      3          1           0        0.418675   -0.163247    2.179872
      4          1           0        0.507208   -0.920493   -0.012628
      5          1           0        0.519857    0.867663    0.109129
      6          6           0       -1.344391    0.031371   -0.516872
      7          8           0       -2.414987   -0.003222    0.055792
      8          6           0       -1.373135    0.058188   -2.072247
      9          6           0       -0.095225    0.085301   -2.937795
     10          6           0       -0.444530    0.014743   -4.427911
     11          6           0        0.810040    0.053274   -5.299985
     12          1           0        1.452217   -0.808368   -5.056946
     13          1           0        1.370951    0.980023   -5.124650
     14          8           0        0.367985   -0.030593   -6.657135
     15          1           0        1.158199   -0.012815   -7.217095
     16          1           0       -1.967795    0.940770   -2.339098
     17          8           0       -2.086899   -1.123314   -2.455780
     18          1           0       -2.938799   -0.858335   -2.828887
     19          1           0        0.495285   -0.812680   -2.701906
     20          8           0        0.686353    1.267415   -2.711605
     21          1           0        1.565322    1.001101   -2.411984
     22          1           0       -0.914491   -0.954148   -4.639691
     23          8           0       -1.291964    1.106655   -4.775079
     24          1           0       -2.087368    0.750162   -5.195478
 ---------------------------------------------------------------------
                    Distance matrix (angstroms):
                    1          2          3          4          5
     1  C    0.000000
     2  O    1.418878   0.000000
     3  H    1.940402   0.968903   0.000000
     4  H    1.102549   2.082071   2.321275   0.000000
     5  H    1.092164   2.076469   2.315381   1.792341   0.000000
     6  C    1.521948   2.391362   3.227802   2.142131   2.136979
     7  O    2.363138   2.582630   3.544991   3.063542   3.061796
     8  C    2.715061   3.877030   4.619538   2.955594   2.999512
     9  C    3.245378   4.631951   5.149407   3.151373   3.205334
    10  C    4.748599   6.108308   6.666303   4.612504   4.716169
    11  C    5.673848   7.086706   7.493218   5.384800   5.477769
    12  H    5.626418   7.021640   7.338660   5.133299   5.510600
    13  H    5.707350   7.118706   7.454525   5.521846   5.303719
    14  O    6.975873   8.372566   8.838148   6.705280   6.827318
    15  H    7.621236   9.033601   9.427222   7.290542   7.406502
    16  H    3.400217   4.439056   5.228306   3.873294   3.491070
    17  O    3.591418   4.572208   5.356202   3.569247   4.163884
    18  H    4.331360   5.220516   6.069881   4.450859   4.855235
    19  H    3.156662   4.525754   4.925382   2.691465   3.275069
    20  O    3.370267   4.734259   5.103430   3.479011   2.853781
    21  H    3.333546   4.679850   4.873977   3.251006   2.732548
    22  H    5.101132   6.392620   6.993518   4.840669   5.284661
    23  O    5.349264   6.629132   7.273945   5.479716   5.214911
    24  H    5.912804   7.129805   7.842854   6.031985   5.911877
                    6          7          8          9         10
     6  C    0.000000
     7  O    1.214626   0.000000
     8  C    1.555872   2.370185   0.000000
     9  C    2.724738   3.788231   1.543685   0.000000
    10  C    4.013260   4.897613   2.532459   1.532134   0.000000
    11  C    5.245972   6.252067   3.896739   2.529915   1.528379
    12  H    5.398004   6.460930   4.200233   2.772006   2.161213
    13  H    5.431818   6.491308   4.206775   2.780743   2.170986
    14  O    6.374865   7.266985   4.905159   3.749865   2.373115
    15  H    7.152475   8.103248   5.734296   4.460168   3.216993
    16  H    2.129824   2.612776   1.097169   2.144012   2.746089
    17  O    2.375707   2.769520   1.432656   2.379045   2.807463
    18  H    2.946036   3.054009   1.965661   2.998036   3.088773
    19  H    2.978456   4.090208   2.155429   1.100325   2.132363
    20  O    3.235519   4.346414   2.472347   1.435068   2.407029
    21  H    3.605310   4.789723   3.104680   1.967889   3.012701
    22  H    4.260716   5.020289   2.797668   2.155945   1.097481
    23  O    4.392188   5.082354   2.900202   2.418876   1.425111
    24  H    4.791454   5.315144   3.277732   3.083473   1.956762
                   11         12         13         14         15
    11  C    0.000000
    12  H    1.101765   0.000000
    13  H    1.097373   1.791516   0.000000
    14  O    1.429792   2.083530   2.091841   0.000000
    15  H    1.949587   2.320688   2.325793   0.968664   0.000000
    16  H    4.155824   4.705599   4.348341   5.004484   5.871628
    17  O    4.226833   4.403475   4.848053   4.987171   5.868048
    18  H    4.581610   4.924201   5.217665   5.125959   6.062727
    19  H    2.756621   2.542037   3.138513   4.033820   4.633159
    20  O    2.861668   3.224290   2.524689   4.165740   4.707554
    21  H    3.131992   3.206679   2.719703   4.529826   4.927764
    22  H    2.103544   2.407625   3.033059   2.562768   3.438773
    23  O    2.409057   3.358167   2.688745   2.755158   3.635925
    24  H    2.981870   3.869996   3.466673   2.962225   3.899073
                   16         17         18         19         20
    16  H    0.000000
    17  O    2.070808   0.000000
    18  H    2.102266   0.967035   0.000000
    19  H    3.045157   2.612421   3.436734   0.000000
    20  O    2.699993   3.670417   4.204081   2.088874   0.000000
    21  H    3.534384   4.225373   4.890646   2.125755   0.966066
    22  H    3.161154   2.484476   2.717722   2.400519   3.348964
    23  O    2.533431   3.314186   3.218837   3.343075   2.863128
    24  H    2.865229   3.319014   2.985456   3.915415   3.759083
                   21         22         23         24
    21  H    0.000000
    22  H    3.864602   0.000000
    23  O    3.709373   2.099458   0.000000
    24  H    4.599234   2.142244   0.967724   0.000000
 Stoichiometry    C6H12O6
 Framework group  C1[X(C6H12O6)]
 Deg. of freedom    66
 Full point group                 C1      NOp   1
 Largest Abelian subgroup         C1      NOp   1
 Largest concise Abelian subgroup C1      NOp   1
                         Standard orientation:                         
 ---------------------------------------------------------------------
 Center     Atomic      Atomic             Coordinates (Angstroms)
 Number     Number       Type             X           Y           Z
 ---------------------------------------------------------------------
      1          6           0       -2.716136   -0.983940   -0.214293
      2          8           0       -4.131188   -0.880083   -0.206840
      3          1           0       -4.483937   -1.755819   -0.424622
      4          1           0       -2.352349   -1.281324   -1.211707
      5          1           0       -2.374643   -1.707550    0.529074
      6          6           0       -2.123709    0.376027    0.126064
      7          8           0       -2.872806    1.307606    0.341307
      8          6           0       -0.597213    0.676711    0.137785
      9          6           0        0.475211   -0.399506   -0.135394
     10          6           0        1.877248    0.218253   -0.145422
     11          6           0        2.952690   -0.836915   -0.402305
     12          1           0        2.778020   -1.307354   -1.383154
     13          1           0        2.925974   -1.609581    0.376476
     14          8           0        4.207287   -0.151138   -0.402614
     15          1           0        4.894821   -0.812418   -0.570884
     16          1           0       -0.389840    1.101259    1.128005
     17          8           0       -0.405533    1.689195   -0.857525
     18          1           0       -0.170748    2.514977   -0.412424
     19          1           0        0.296760   -0.811142   -1.140096
     20          8           0        0.449992   -1.448934    0.843118
     21          1           0        0.292073   -2.287202    0.389629
     22          1           0        1.953194    0.919479   -0.986242
     23          8           0        2.131358    0.853702    1.104608
     24          1           0        2.389247    1.770116    0.930913
 ---------------------------------------------------------------------
 Rotational constants (GHZ):      2.0137480      0.4193282      0.3782922
 Standard basis: 6-31G(d) (6D, 7F)
 There are   204 symmetry adapted basis functions of A   symmetry.
 Integral buffers will be    131072 words long.
 Raffenetti 2 integral format.
 Two-electron integral symmetry is turned on.
   204 basis functions,   384 primitive gaussians,   204 cartesian basis functions
    48 alpha electrons       48 beta electrons
       nuclear repulsion energy       773.8140961109 Hartrees.
 NAtoms=   24 NActive=   24 NUniq=   24 SFac= 1.00D+00 NAtFMM=   50 NAOKFM=F Big=F
 One-electron integrals computed using PRISM.
 NBasis=   204 RedAO= T  NBF=   204
 NBsUse=   204 1.00D-06 NBFU=   204
 Initial guess read from the read-write file.
 B after Tr=     0.000000    0.000000    0.000000
         Rot=    1.000000    0.000000    0.000000    0.000000 Ang=   0.00 deg.
 Initial guess orbital symmetries:
       Occupied  (A) (A) (A) (A) (A) (A) (A) (A) (A) (A) (A) (A)
                 (A) (A) (A) (A) (A) (A) (A) (A) (A) (A) (A) (A)
                 (A) (A) (A) (A) (A) (A) (A) (A) (A) (A) (A) (A)
                 (A) (A) (A) (A) (A) (A) (A) (A) (A) (A) (A) (A)
       Virtual   (A) (A) (A) (A) (A) (A) (A) (A) (A) (A) (A) (A)
                 (A) (A) (A) (A) (A) (A) (A) (A) (A) (A) (A) (A)
                 (A) (A) (A) (A) (A) (A) (A) (A) (A) (A) (A) (A)
                 (A) (A) (A) (A) (A) (A) (A) (A) (A) (A) (A) (A)
                 (A) (A) (A) (A) (A) (A) (A) (A) (A) (A) (A) (A)
                 (A) (A) (A) (A) (A) (A) (A) (A) (A) (A) (A) (A)
                 (A) (A) (A) (A) (A) (A) (A) (A) (A) (A) (A) (A)
                 (A) (A) (A) (A) (A) (A) (A) (A) (A) (A) (A) (A)
                 (A) (A) (A) (A) (A) (A) (A) (A) (A) (A) (A) (A)
                 (A) (A) (A) (A) (A) (A) (A) (A) (A) (A) (A) (A)
                 (A) (A) (A) (A) (A) (A) (A) (A) (A) (A) (A) (A)
                 (A) (A) (A) (A) (A) (A) (A) (A) (A) (A) (A) (A)
                 (A) (A) (A) (A) (A) (A) (A) (A) (A) (A) (A) (A)
 Harris functional with IExCor=  402 diagonalized for initial guess.
 ExpMin= 1.61D-01 ExpMax= 5.48D+03 ExpMxC= 8.25D+02 IAcc=1 IRadAn=         1 AccDes= 0.00D+00
 HarFok:  IExCor=  402 AccDes= 0.00D+00 IRadAn=         1 IDoV= 1
 ScaDFX=  1.000000  1.000000  1.000000  1.000000
 FoFCou: FMM=F IPFlag=           0 FMFlag=      100000 FMFlg1=           0
         NFxFlg=           0 DoJE=T BraDBF=F KetDBF=T FulRan=T
         Omega=  0.000000  0.000000  1.000000  0.000000  0.000000 ICntrl=     500 IOpCl=  0
         NMat0=    1 NMatS0=    1 NMatT0=    0 NMatD0=    1 NMtDS0=    0 NMtDT0=    0
         I1Cent=           4 NGrid=           0.
 Petite list used in FoFCou.
 Requested convergence on RMS density matrix=1.00D-08 within 128 cycles.
 Requested convergence on MAX density matrix=1.00D-06.
 Requested convergence on             energy=1.00D-06.
 No special actions if energy rises.
 Keep R1 ints in memory in canonical form, NReq=223281165.
 Integral accuracy reduced to 1.0D-05 until final iterations.
 Initial convergence to 1.0D-05 achieved.  Increase integral accuracy.
 SCF Done:  E(RB3LYP) =  -687.098966533     A.U. after   14 cycles
             Convg  =    0.8206D-08             -V/T =  2.0086
 Calling FoFJK, ICntrl=      2127 FMM=F ISym2X=0 I1Cent= 0 IOpClX= 0 NMat=1 NMatS=1 NMatT=0.
 ***** Axes restored to original set *****
 -------------------------------------------------------------------
 Center     Atomic                   Forces (Hartrees/Bohr)
 Number     Number              X              Y              Z
 -------------------------------------------------------------------
      1        6          -0.002273624   -0.002750266    0.006735091
      2        8          -0.000408604    0.000010620   -0.004444495
      3        1           0.000387212    0.000223674   -0.000519516
      4        1           0.002583646    0.001461290   -0.003961895
      5        1           0.005550138    0.003150163   -0.005937839
      6        6          -0.006669278   -0.003120650    0.007446396
      7        8           0.002356599    0.002933094   -0.006694007
      8        6          -0.004734007    0.003907663   -0.005553464
      9        6           0.006517373   -0.004012921    0.005349241
     10        6           0.004265858   -0.003732175   -0.007548849
     11        6          -0.002031243    0.001908565   -0.007219823
     12        1           0.001137624    0.000255660    0.002978276
     13        1          -0.000936030    0.000231962    0.001124118
     14        8           0.001408232   -0.001943955    0.002467592
     15        1          -0.000489466    0.000556887   -0.000643162
     16        1           0.003594676    0.001992521    0.001474435
     17        8           0.000280736   -0.003935137   -0.002100461
     18        1          -0.000622760    0.000027750    0.003510377
     19        1           0.000094840   -0.000492542    0.000284230
     20        8          -0.004800038    0.000691113    0.009329931
     21        1           0.000381784   -0.000233542    0.000068567
     22        1          -0.003930244    0.002744926    0.002677073
     23        8          -0.004707123   -0.000648286    0.003849899
     24        1           0.003043698    0.000773587   -0.002671716
 -------------------------------------------------------------------
 Cartesian Forces:  Max     0.009329931 RMS     0.003584253

 GradGradGradGradGradGradGradGradGradGradGradGradGradGradGradGradGradGrad
 Berny optimization.
 Using GEDIIS/GDIIS optimizer.
 Internal  Forces:  Max     0.018853195 RMS     0.004060738
 Search for a local minimum.
 Step number   2 out of a maximum of  125
 All quantities printed in internal units (Hartrees-Bohrs-Radians)
 Mixed Optimization -- RFO/linear search
 Update second derivatives using D2CorX and points    1    2
 DE= -8.25D-03 DEPred=-2.10D-02 R= 3.93D-01
 Trust test= 3.93D-01 RLast= 4.39D-01 DXMaxT set to 3.00D-01
 ITU=  0  0
 Use linear search instead of GDIIS.
     Eigenvalues ---    0.00235   0.00299   0.00383   0.00401   0.00488
     Eigenvalues ---    0.00561   0.01322   0.01374   0.01378   0.01392
     Eigenvalues ---    0.01513   0.03723   0.04380   0.04486   0.04853
     Eigenvalues ---    0.04968   0.05313   0.05502   0.05913   0.06537
     Eigenvalues ---    0.06873   0.07152   0.07504   0.09111   0.10827
     Eigenvalues ---    0.11134   0.13508   0.13851   0.15976   0.16000
     Eigenvalues ---    0.16000   0.16000   0.16004   0.16509   0.16627
     Eigenvalues ---    0.19361   0.19843   0.19973   0.21614   0.22075
     Eigenvalues ---    0.22286   0.24634   0.28276   0.28725   0.29237
     Eigenvalues ---    0.29519   0.30676   0.33926   0.34034   0.34165
     Eigenvalues ---    0.34195   0.34257   0.34387   0.34438   0.39620
     Eigenvalues ---    0.41398   0.41754   0.41944   0.42302   0.44742
     Eigenvalues ---    0.52710   0.52850   0.52881   0.52908   0.53025
     Eigenvalues ---    0.88467
 RFO step:  Lambda=-6.26352874D-03 EMin= 2.34924291D-03
 Quartic linear search produced a step of -0.31241.
 Iteration  1 RMS(Cart)=  0.15803857 RMS(Int)=  0.00646652
 Iteration  2 RMS(Cart)=  0.01320018 RMS(Int)=  0.00067330
 Iteration  3 RMS(Cart)=  0.00004466 RMS(Int)=  0.00067272
 Iteration  4 RMS(Cart)=  0.00000002 RMS(Int)=  0.00067272
 Variable       Old X    -DE/DX   Delta X   Delta X   Delta X     New X
                                 (Linear)    (Quad)   (Total)
    R1        2.68129  -0.00482  -0.00317  -0.00166  -0.00483   2.67646
    R2        2.08352   0.00131  -0.00565   0.01285   0.00720   2.09071
    R3        2.06389   0.00664   0.00003   0.01293   0.01297   2.07686
    R4        2.87606   0.00043  -0.00312   0.00657   0.00345   2.87951
    R5        1.83096   0.00006   0.00212  -0.00389  -0.00178   1.82918
    R6        2.29531  -0.00532   0.01023  -0.02364  -0.01341   2.28190
    R7        2.94017  -0.00738  -0.01667   0.01311  -0.00356   2.93661
    R8        2.91714  -0.00574  -0.00440  -0.00555  -0.00995   2.90720
    R9        2.07335  -0.00070  -0.00113   0.00066  -0.00047   2.07288
   R10        2.70733   0.00301  -0.00615   0.01622   0.01007   2.71739
   R11        2.89531   0.00536   0.00473   0.00422   0.00895   2.90426
   R12        2.07931   0.00051  -0.00156   0.00385   0.00229   2.08161
   R13        2.71189  -0.00055  -0.00619   0.01053   0.00435   2.71623
   R14        2.88822   0.00001   0.00034  -0.00059  -0.00025   2.88797
   R15        2.07394  -0.00126  -0.00104  -0.00059  -0.00164   2.07230
   R16        2.69307   0.00080   0.00132  -0.00111   0.00020   2.69327
   R17        2.08203   0.00112  -0.00396   0.00941   0.00545   2.08749
   R18        2.07373  -0.00010  -0.00235   0.00407   0.00172   2.07545
   R19        2.70191  -0.00193  -0.00341   0.00316  -0.00025   2.70167
   R20        1.83051  -0.00002   0.00218  -0.00410  -0.00193   1.82858
   R21        1.82743  -0.00080   0.00337  -0.00734  -0.00397   1.82346
   R22        1.82560   0.00044   0.00346  -0.00593  -0.00247   1.82313
   R23        1.82873  -0.00163   0.00277  -0.00729  -0.00452   1.82421
    A1        1.93217   0.00244  -0.01162   0.03560   0.02408   1.95625
    A2        1.93559   0.00298  -0.01303   0.04023   0.02728   1.96287
    A3        1.89824   0.00051   0.00897  -0.01015  -0.00120   1.89704
    A4        1.91119  -0.00304   0.00480  -0.03313  -0.02845   1.88275
    A5        1.89114  -0.00125   0.00603  -0.01671  -0.01083   1.88031
    A6        1.89453  -0.00180   0.00514  -0.01799  -0.01301   1.88152
    A7        1.87104  -0.00120   0.00161  -0.00763  -0.00602   1.86502
    A8        2.07705   0.01505   0.01279   0.02073   0.03002   2.10707
    A9        2.16070  -0.01885  -0.03676   0.01677  -0.02333   2.13737
   A10        2.04376   0.00388   0.02440  -0.02984  -0.00866   2.03510
   A11        2.14782  -0.01791  -0.04130  -0.00089  -0.04278   2.10504
   A12        1.84109   0.00382   0.00719  -0.01806  -0.01199   1.82911
   A13        1.83652   0.00429   0.01759  -0.01551   0.00205   1.83857
   A14        1.87358   0.00349   0.01727  -0.02249  -0.00644   1.86715
   A15        1.85127   0.00776   0.01197   0.00939   0.02089   1.87217
   A16        1.90526  -0.00044  -0.01186   0.05903   0.04760   1.95286
   A17        1.93455   0.00259   0.02531  -0.02734  -0.00168   1.93287
   A18        1.88571   0.00235  -0.00830   0.01851   0.01079   1.89650
   A19        1.95730  -0.01099  -0.00909  -0.03183  -0.03982   1.91748
   A20        1.86844  -0.00201   0.00280   0.00793   0.01043   1.87887
   A21        1.89167   0.00748   0.00823   0.01952   0.02762   1.91929
   A22        1.92429   0.00092  -0.02095   0.01494  -0.00597   1.91832
   A23        1.94619   0.00012   0.00185  -0.00229  -0.00049   1.94570
   A24        1.90282  -0.00162   0.00929  -0.02305  -0.01368   1.88915
   A25        1.91475   0.00067   0.00126   0.00002   0.00133   1.91608
   A26        1.83760   0.00258  -0.01966   0.04553   0.02584   1.86344
   A27        1.90689  -0.00051  -0.00473   0.00623   0.00151   1.90840
   A28        1.95495  -0.00121   0.01100  -0.02543  -0.01417   1.94078
   A29        1.91013  -0.00111   0.00917  -0.01946  -0.01031   1.89982
   A30        1.92804  -0.00186   0.00767  -0.02199  -0.01439   1.91365
   A31        1.86119   0.00075   0.01187  -0.01861  -0.00678   1.85442
   A32        1.90423   0.00015   0.00211  -0.00431  -0.00186   1.90237
   A33        1.92167   0.00074  -0.01299   0.02717   0.01442   1.93609
   A34        1.93824   0.00130  -0.01850   0.03650   0.01812   1.95636
   A35        1.87068   0.00141  -0.00082   0.00719   0.00637   1.87705
   A36        1.89252  -0.00078  -0.00363   0.00273  -0.00090   1.89163
   A37        1.89371  -0.00022  -0.00295   0.00394   0.00098   1.89470
   A38        1.88844  -0.00010  -0.00160   0.00220   0.00059   1.88904
    D1        1.06676  -0.00003  -0.00611   0.00791   0.00165   1.06840
    D2       -1.05839   0.00013   0.00350  -0.00177   0.00189  -1.05650
    D3       -3.14052   0.00022  -0.00034   0.00243   0.00209  -3.13843
    D4       -0.00296   0.00068  -0.00831   0.02392   0.01644   0.01348
    D5       -3.08052  -0.00088  -0.02021  -0.12128  -0.14231   3.06036
    D6        2.09849   0.00319  -0.01343   0.05113   0.03839   2.13688
    D7       -0.97907   0.00163  -0.02533  -0.09407  -0.12036  -1.09942
    D8       -2.11056  -0.00216  -0.00096  -0.00808  -0.00809  -2.11865
    D9        1.09507  -0.00372  -0.01286  -0.15328  -0.16684   0.92823
   D10       -0.04947  -0.00143   0.00733   0.05954   0.06577   0.01630
   D11       -2.20208   0.00358   0.00733   0.10938   0.11557  -2.08652
   D12        2.06755   0.00055   0.00937   0.05758   0.06634   2.13390
   D13       -3.12815  -0.00336  -0.00420  -0.08479  -0.08819   3.06685
   D14        1.00241   0.00164  -0.00420  -0.03494  -0.03838   0.96403
   D15       -1.01113  -0.00138  -0.00215  -0.08674  -0.08761  -1.09874
   D16        3.07646   0.00154   0.01387   0.13994   0.15346  -3.05327
   D17        1.03436   0.00113   0.00108   0.13468   0.13529   1.16964
   D18       -1.08992   0.00535   0.03674   0.12358   0.16028  -0.92964
   D19       -1.06890  -0.00368   0.00770   0.09163   0.09965  -0.96925
   D20       -3.11100  -0.00409  -0.00509   0.08636   0.08147  -3.02953
   D21        1.04791   0.00013   0.03056   0.07527   0.10646   1.15437
   D22        0.96629   0.00131   0.00914   0.15350   0.16249   1.12877
   D23       -1.07581   0.00090  -0.00364   0.14823   0.14431  -0.93150
   D24        3.08310   0.00512   0.03201   0.13714   0.16930  -3.03079
   D25        1.93219   0.00483   0.02272  -0.06028  -0.03728   1.89491
   D26       -2.05033  -0.00936  -0.00900  -0.06528  -0.07498  -2.12531
   D27       -0.03658  -0.00146   0.01143  -0.05800  -0.04616  -0.08273
   D28        3.13265  -0.00439   0.00777  -0.04445  -0.03687   3.09579
   D29       -1.12899  -0.00215  -0.00960  -0.00423  -0.01400  -1.14299
   D30        1.01771  -0.00428   0.01167  -0.05081  -0.03936   0.97835
   D31       -1.09786  -0.00134   0.01411  -0.03244  -0.01855  -1.11641
   D32        0.92368   0.00090  -0.00326   0.00778   0.00432   0.92800
   D33        3.07038  -0.00123   0.01801  -0.03880  -0.02104   3.04934
   D34        0.97762   0.00264  -0.00479  -0.00001  -0.00440   0.97323
   D35        2.99916   0.00487  -0.02216   0.04020   0.01848   3.01764
   D36       -1.13733   0.00275  -0.00089  -0.00637  -0.00688  -1.14421
   D37        2.11510  -0.00162  -0.03241   0.00912  -0.02343   2.09168
   D38       -2.02680  -0.00036  -0.00029  -0.03270  -0.03299  -2.05979
   D39        0.01306   0.00209  -0.00408  -0.00343  -0.00739   0.00567
   D40        1.05404  -0.00209   0.01401  -0.05450  -0.04047   1.01357
   D41       -1.04293  -0.00040  -0.00005  -0.02304  -0.02308  -1.06601
   D42        3.13225  -0.00138   0.01061  -0.04327  -0.03269   3.09955
   D43       -1.00709  -0.00174   0.01354  -0.05277  -0.03927  -1.04636
   D44       -3.10406  -0.00006  -0.00052  -0.02131  -0.02188  -3.12594
   D45        1.07112  -0.00103   0.01013  -0.04154  -0.03150   1.03962
   D46       -3.10962  -0.00152   0.01358  -0.05175  -0.03809   3.13547
   D47        1.07659   0.00017  -0.00047  -0.02029  -0.02070   1.05590
   D48       -1.03141  -0.00081   0.01018  -0.04053  -0.03032  -1.06173
   D49       -2.19341  -0.00131   0.00354  -0.05216  -0.04855  -2.24196
   D50        1.95132  -0.00156   0.00351  -0.05336  -0.04978   1.90154
[...]
    23  O    2.411342   3.361095   2.732628   2.663057   3.472220
    24  H    2.369029   3.381924   2.753439   2.080040   2.837768
                   16         17         18         19         20
    16  H    0.000000
    17  O    2.059403   0.000000
    18  H    2.712205   0.980353   0.000000
    19  H    3.055141   2.665960   2.927003   0.000000
    20  O    2.715531   3.681096   4.156971   2.042469   0.000000
    21  H    2.690164   3.997248   4.634800   2.782926   0.977916
    22  H    2.907619   2.414450   3.271474   2.607662   3.343366
    23  O    2.714412   3.637113   4.540867   3.312571   2.623933
    24  H    3.652946   4.399656   5.325593   3.995015   3.397409
                   21         22         23         24
    21  H    0.000000
    22  H    3.315783   0.000000
    23  O    1.998363   2.084639   0.000000
    24  H    2.731562   2.441849   0.974322   0.000000
 Stoichiometry    C6H12O6
 Framework group  C1[X(C6H12O6)]
 Deg. of freedom    66
 Full point group                 C1      NOp   1
 Largest Abelian subgroup         C1      NOp   1
 Largest concise Abelian subgroup C1      NOp   1
                         Standard orientation:                         
 ---------------------------------------------------------------------
 Center     Atomic      Atomic             Coordinates (Angstroms)
 Number     Number       Type             X           Y           Z
 ---------------------------------------------------------------------
      1          6           0       -2.679436   -0.950357    0.267311
      2          8           0       -4.011032   -0.973895   -0.194492
      3          1           0       -4.326258   -1.886475   -0.118132
      4          1           0       -2.034086   -1.705787   -0.205491
      5          1           0       -2.605775   -1.120733    1.357107
      6          6           0       -2.063299    0.402430   -0.015878
      7          8           0       -2.655644    1.288612   -0.605448
      8          6           0       -0.631082    0.686582    0.471618
      9          6           0        0.429156   -0.094952   -0.360377
     10          6           0        1.848395    0.262902    0.108967
     11          6           0        2.910941   -0.164418   -0.901237
     12          1           0        2.870085    0.481950   -1.789769
     13          1           0        2.725254   -1.202478   -1.209229
     14          8           0        4.166620   -0.042987   -0.225929
     15          1           0        4.838165   -0.522869   -0.732170
     16          1           0       -0.530263    0.376931    1.522027
     17          8           0       -0.383791    2.068097    0.355988
     18          1           0       -1.140805    2.412635   -0.162968
     19          1           0        0.304433    0.194407   -1.411206
     20          8           0        0.252751   -1.502186   -0.275169
     21          1           0        0.763786   -1.757427    0.518566
     22          1           0        1.917902    1.342274    0.285561
     23          8           0        2.045736   -0.457066    1.330432
     24          1           0        3.012395   -0.510142    1.440232
 ---------------------------------------------------------------------
 Rotational constants (GHZ):      1.9600664      0.4367793      0.3949577

 **********************************************************************

            Population analysis using the SCF density.

 **********************************************************************

 Orbital symmetries:
       Occupied  (A) (A) (A) (A) (A) (A) (A) (A) (A) (A) (A) (A)
                 (A) (A) (A) (A) (A) (A) (A) (A) (A) (A) (A) (A)
                 (A) (A) (A) (A) (A) (A) (A) (A) (A) (A) (A) (A)
                 (A) (A) (A) (A) (A) (A) (A) (A) (A) (A) (A) (A)
       Virtual   (A) (A) (A) (A) (A) (A) (A) (A) (A) (A) (A) (A)
                 (A) (A) (A) (A) (A) (A) (A) (A) (A) (A) (A) (A)
                 (A) (A) (A) (A) (A) (A) (A) (A) (A) (A) (A) (A)
                 (A) (A) (A) (A) (A) (A) (A) (A) (A) (A) (A) (A)
                 (A) (A) (A) (A) (A) (A) (A) (A) (A) (A) (A) (A)
                 (A) (A) (A) (A) (A) (A) (A) (A) (A) (A) (A) (A)
                 (A) (A) (A) (A) (A) (A) (A) (A) (A) (A) (A) (A)
                 (A) (A) (A) (A) (A) (A) (A) (A) (A) (A) (A) (A)
                 (A) (A) (A) (A) (A) (A) (A) (A) (A) (A) (A) (A)
                 (A) (A) (A) (A) (A) (A) (A) (A) (A) (A) (A) (A)
                 (A) (A) (A) (A) (A) (A) (A) (A) (A) (A) (A) (A)
                 (A) (A) (A) (A) (A) (A) (A) (A) (A) (A) (A) (A)
                 (A) (A) (A) (A) (A) (A) (A) (A) (A) (A) (A) (A)
 The electronic state is 1-A.
 Alpha  occ. eigenvalues --  -19.17094 -19.15827 -19.15534 -19.15478 -19.15055
 Alpha  occ. eigenvalues --  -19.13992 -10.28145 -10.24830 -10.24579 -10.24336
 Alpha  occ. eigenvalues --  -10.24272 -10.24220  -1.06531  -1.05503  -1.03498
 Alpha  occ. eigenvalues --   -1.02474  -1.01137  -1.00799  -0.77977  -0.75364
 Alpha  occ. eigenvalues --   -0.70854  -0.64860  -0.60504  -0.55691  -0.54726
 Alpha  occ. eigenvalues --   -0.52899  -0.51470  -0.49303  -0.48729  -0.48557
 Alpha  occ. eigenvalues --   -0.47633  -0.46571  -0.44442  -0.43164  -0.41348
 Alpha  occ. eigenvalues --   -0.39663  -0.37263  -0.37060  -0.35819  -0.35355
 Alpha  occ. eigenvalues --   -0.34452  -0.33694  -0.30413  -0.29392  -0.28320
 Alpha  occ. eigenvalues --   -0.27417  -0.26547  -0.25466
 Alpha virt. eigenvalues --   -0.02371   0.04742   0.06493   0.08639   0.10511
 Alpha virt. eigenvalues --    0.11104   0.12446   0.14455   0.14944   0.15524
 Alpha virt. eigenvalues --    0.16469   0.17713   0.18272   0.18917   0.19930
 Alpha virt. eigenvalues --    0.21232   0.22040   0.23040   0.23846   0.27551
 Alpha virt. eigenvalues --    0.29201   0.29949   0.34039   0.38094   0.51806
 Alpha virt. eigenvalues --    0.52241   0.53735   0.53996   0.56451   0.57258
 Alpha virt. eigenvalues --    0.58673   0.59736   0.61257   0.64778   0.66732
 Alpha virt. eigenvalues --    0.66908   0.69938   0.70920   0.72208   0.74142
 Alpha virt. eigenvalues --    0.77857   0.78921   0.80334   0.80693   0.81379
 Alpha virt. eigenvalues --    0.82185   0.82450   0.83352   0.84806   0.86058
 Alpha virt. eigenvalues --    0.87369   0.88506   0.89844   0.91514   0.93451
 Alpha virt. eigenvalues --    0.94955   0.95558   0.97349   0.98475   1.00740
 Alpha virt. eigenvalues --    1.01987   1.03059   1.04407   1.05590   1.08414
 Alpha virt. eigenvalues --    1.09906   1.11616   1.13764   1.14794   1.18866
 Alpha virt. eigenvalues --    1.20654   1.24195   1.26274   1.29528   1.30788
 Alpha virt. eigenvalues --    1.33059   1.33301   1.37090   1.37642   1.43183
 Alpha virt. eigenvalues --    1.46475   1.51529   1.54029   1.55680   1.58401
 Alpha virt. eigenvalues --    1.60755   1.61484   1.65659   1.67941   1.69943
 Alpha virt. eigenvalues --    1.71727   1.72202   1.73369   1.74647   1.76845
 Alpha virt. eigenvalues --    1.78095   1.80085   1.83163   1.84334   1.85450
 Alpha virt. eigenvalues --    1.88333   1.90377   1.92011   1.94639   1.95180
 Alpha virt. eigenvalues --    1.97648   2.01525   2.02829   2.04491   2.06686
 Alpha virt. eigenvalues --    2.07739   2.13081   2.14980   2.15903   2.16816
 Alpha virt. eigenvalues --    2.19904   2.25540   2.26070   2.29096   2.33667
 Alpha virt. eigenvalues --    2.36181   2.36812   2.38824   2.39039   2.44051
 Alpha virt. eigenvalues --    2.45606   2.46804   2.51674   2.52940   2.53655
 Alpha virt. eigenvalues --    2.56822   2.59112   2.61856   2.65082   2.70308
 Alpha virt. eigenvalues --    2.74017   2.80095   2.84240   2.87006   2.91553
 Alpha virt. eigenvalues --    2.94212   2.97940   2.99824   3.04319   3.73576
 Alpha virt. eigenvalues --    3.76766   3.81241   3.82861   3.94949   4.05430
 Alpha virt. eigenvalues --    4.21068   4.26076   4.39462   4.48965   4.54706
 Alpha virt. eigenvalues --    4.67084
          Condensed to atoms (all electrons):
              1          2          3          4          5          6
     1  C    5.130681   0.232349  -0.022611   0.344071   0.348095   0.274812
     2  O    0.232349   8.224744   0.234170  -0.027697  -0.037894  -0.035708
     3  H   -0.022611   0.234170   0.390709  -0.005412  -0.002205   0.006239
     4  H    0.344071  -0.027697  -0.005412   0.548317  -0.045530  -0.027454
     5  H    0.348095  -0.037894  -0.002205  -0.045530   0.627368  -0.043781
     6  C    0.274812  -0.035708   0.006239  -0.027454  -0.043781   4.662462
     7  O   -0.078265   0.002987   0.000165   0.000396   0.000549   0.558018
     8  C   -0.112070   0.002016  -0.000181   0.003595   0.007651   0.288289
     9  C    0.003927  -0.000060   0.000003  -0.002278  -0.000543  -0.018567
    10  C   -0.000203   0.000000   0.000000   0.000305  -0.000004   0.003065
    11  C    0.000002   0.000000   0.000000  -0.000001   0.000000  -0.000040
    12  H    0.000000   0.000000   0.000000   0.000000   0.000000   0.000000
    13  H   -0.000001   0.000000   0.000000  -0.000004   0.000000   0.000002
    14  O    0.000000   0.000000   0.000000   0.000000   0.000000   0.000000
    15  H    0.000000   0.000000   0.000000   0.000000   0.000000   0.000000
    16  H    0.002309  -0.000003   0.000002  -0.000039   0.002215  -0.044345
    17  O    0.002330  -0.000007   0.000001   0.000015  -0.000018  -0.022961
    18  H    0.003341  -0.000032   0.000001  -0.000064  -0.000102  -0.010578
    19  H    0.000870  -0.000002   0.000001  -0.000104   0.000006  -0.006329
    20  O   -0.004998   0.000106   0.000004   0.019803   0.000478  -0.004867
    21  H    0.000681  -0.000004   0.000000  -0.000508  -0.000028  -0.000858
    22  H   -0.000021   0.000000   0.000000  -0.000007   0.000000   0.000218
    23  O   -0.000006   0.000000   0.000000   0.000003  -0.000001   0.000032
    24  H    0.000000   0.000000   0.000000   0.000000   0.000000   0.000003
              7          8          9         10         11         12
     1  C   -0.078265  -0.112070   0.003927  -0.000203   0.000002   0.000000
     2  O    0.002987   0.002016  -0.000060   0.000000   0.000000   0.000000
     3  H    0.000165  -0.000181   0.000003   0.000000   0.000000   0.000000
     4  H    0.000396   0.003595  -0.002278   0.000305  -0.000001   0.000000
     5  H    0.000549   0.007651  -0.000543  -0.000004   0.000000   0.000000
     6  C    0.558018   0.288289  -0.018567   0.003065  -0.000040   0.000000
     7  O    8.004503  -0.071514  -0.002797  -0.000047   0.000000   0.000000
     8  C   -0.071514   5.118393   0.279255  -0.028368   0.004246  -0.000257
     9  C   -0.002797   0.279255   4.996694   0.333592  -0.028773  -0.001784
    10  C   -0.000047  -0.028368   0.333592   4.907989   0.345188  -0.034417
    11  C    0.000000   0.004246  -0.028773   0.345188   4.948060   0.349360
    12  H    0.000000  -0.000257  -0.001784  -0.034417   0.349360   0.626347
    13  H    0.000000   0.000418  -0.006355  -0.030570   0.347986  -0.046525
    14  O    0.000000  -0.000041   0.002131  -0.049197   0.233919  -0.037810
    15  H    0.000000   0.000003  -0.000210   0.005772  -0.021030  -0.000839
    16  H    0.001853   0.356026  -0.056208  -0.013002   0.000256  -0.000007
    17  O   -0.024063   0.257936  -0.048391  -0.007232  -0.000069   0.000028
    18  H    0.053620  -0.055733   0.002809  -0.000285   0.000002   0.000001
    19  H    0.001806  -0.055427   0.358663  -0.048317  -0.004311   0.003719
    20  O    0.000008  -0.038586   0.219225  -0.023117  -0.010639   0.000286
    21  H   -0.000002  -0.001256  -0.042639  -0.020476   0.000759   0.000003
    22  H    0.000004  -0.006988  -0.048071   0.364434  -0.048939  -0.002430
    23  O    0.000000  -0.003659  -0.050259   0.222612  -0.038244   0.003483
    24  H    0.000000  -0.000194   0.006872  -0.037942  -0.013919   0.001275
             13         14         15         16         17         18
     1  C   -0.000001   0.000000   0.000000   0.002309   0.002330   0.003341
     2  O    0.000000   0.000000   0.000000  -0.000003  -0.000007  -0.000032
     3  H    0.000000   0.000000   0.000000   0.000002   0.000001   0.000001
     4  H   -0.000004   0.000000   0.000000  -0.000039   0.000015  -0.000064
     5  H    0.000000   0.000000   0.000000   0.002215  -0.000018  -0.000102
     6  C    0.000002   0.000000   0.000000  -0.044345  -0.022961  -0.010578
     7  O    0.000000   0.000000   0.000000   0.001853  -0.024063   0.053620
     8  C    0.000418  -0.000041   0.000003   0.356026   0.257936  -0.055733
     9  C   -0.006355   0.002131  -0.000210  -0.056208  -0.048391   0.002809
    10  C   -0.030570  -0.049197   0.005772  -0.013002  -0.007232  -0.000285
    11  C    0.347986   0.233919  -0.021030   0.000256  -0.000069   0.000002
    12  H   -0.046525  -0.037810  -0.000839  -0.000007   0.000028   0.000001
    13  H    0.619366  -0.037073  -0.005909  -0.000025  -0.000019   0.000002
    14  O   -0.037073   8.259986   0.237081   0.000000   0.000001   0.000000
    15  H   -0.005909   0.237081   0.380127   0.000000   0.000000   0.000000
    16  H   -0.000025   0.000000   0.000000   0.611816  -0.039971   0.006191
    17  O   -0.000019   0.000001   0.000000  -0.039971   8.280940   0.225193
    18  H    0.000002   0.000000   0.000000   0.006191   0.225193   0.362959
    19  H   -0.001460   0.000051  -0.000005   0.007050   0.006844   0.001287
    20  O    0.011365   0.000016   0.000009   0.004276   0.001578  -0.000082
    21  H    0.001734  -0.000102  -0.000001   0.002802  -0.000065   0.000008
    22  H    0.006207   0.000657  -0.000197   0.000687   0.014089  -0.000162
    23  O   -0.001141  -0.010374   0.000413   0.007340   0.000199  -0.000013
    24  H   -0.000184   0.037348  -0.001647  -0.000233  -0.000009   0.000000
             19         20         21         22         23         24
     1  C    0.000870  -0.004998   0.000681  -0.000021  -0.000006   0.000000
     2  O   -0.000002   0.000106  -0.000004   0.000000   0.000000   0.000000
     3  H    0.000001   0.000004   0.000000   0.000000   0.000000   0.000000
     4  H   -0.000104   0.019803  -0.000508  -0.000007   0.000003   0.000000
     5  H    0.000006   0.000478  -0.000028   0.000000  -0.000001   0.000000
     6  C   -0.006329  -0.004867  -0.000858   0.000218   0.000032   0.000003
     7  O    0.001806   0.000008  -0.000002   0.000004   0.000000   0.000000
     8  C   -0.055427  -0.038586  -0.001256  -0.006988  -0.003659  -0.000194
     9  C    0.358663   0.219225  -0.042639  -0.048071  -0.050259   0.006872
    10  C   -0.048317  -0.023117  -0.020476   0.364434   0.222612  -0.037942
    11  C   -0.004311  -0.010639   0.000759  -0.048939  -0.038244  -0.013919
    12  H    0.003719   0.000286   0.000003  -0.002430   0.003483   0.001275
    13  H   -0.001460   0.011365   0.001734   0.006207  -0.001141  -0.000184
    14  O    0.000051   0.000016  -0.000102   0.000657  -0.010374   0.037348
    15  H   -0.000005   0.000009  -0.000001  -0.000197   0.000413  -0.001647
    16  H    0.007050   0.004276   0.002802   0.000687   0.007340  -0.000233
    17  O    0.006844   0.001578  -0.000065   0.014089   0.000199  -0.000009
    18  H    0.001287  -0.000082   0.000008  -0.000162  -0.000013   0.000000
    19  H    0.613858  -0.035210   0.007192   0.002973   0.003172  -0.000173
    20  O   -0.035210   8.294243   0.228445   0.002688  -0.017957   0.000532
    21  H    0.007192   0.228445   0.364847   0.001559   0.046763  -0.001732
    22  H    0.002973   0.002688   0.001559   0.575318  -0.037447   0.000389
    23  O    0.003172  -0.017957   0.046763  -0.037447   8.308033   0.236684
    24  H   -0.000173   0.000532  -0.001732   0.000389   0.236684   0.352283
 Mulliken atomic charges:
              1
     1  C   -0.125293
     2  O   -0.594968
     3  H    0.399115
     4  H    0.192591
     5  H    0.143746
     6  C    0.422347
     7  O   -0.447221
     8  C    0.056444
     9  C    0.103764
    10  C    0.110222
    11  C   -0.063813
    12  H    0.139568
    13  H    0.142186
    14  O   -0.636592
    15  H    0.406434
    16  H    0.151009
    17  O   -0.646348
    18  H    0.411636
    19  H    0.143848
    20  O   -0.647606
    21  H    0.412877
    22  H    0.175039
    23  O   -0.669635
    24  H    0.420647
 Sum of Mulliken atomic charges =   0.00000
 Mulliken charges with hydrogens summed into heavy atoms:
              1
     1  C    0.211044
     2  O   -0.195852
     6  C    0.422347
     7  O   -0.447221
     8  C    0.207453
     9  C    0.247612
    10  C    0.285261
    11  C    0.217941
    14  O   -0.230158
    17  O   -0.234711
    20  O   -0.234729
    23  O   -0.248988
 Sum of Mulliken charges with hydrogens summed into heavy atoms =   0.00000
 Electronic spatial extent (au):  <R**2>=           2766.8907
 Charge=              0.0000 electrons
 Dipole moment (field-independent basis, Debye):
    X=              3.3060    Y=             -3.7056    Z=             -0.2992  Tot=              4.9750
 Quadrupole moment (field-independent basis, Debye-Ang):
   XX=            -64.0640   YY=            -69.1944   ZZ=            -69.2845
   XY=              3.7986   XZ=             -9.6141   YZ=             -2.4403
 Traceless Quadrupole moment (field-independent basis, Debye-Ang):
   XX=              3.4503   YY=             -1.6801   ZZ=             -1.7702
   XY=              3.7986   XZ=             -9.6141   YZ=             -2.4403
 Octapole moment (field-independent basis, Debye-Ang**2):
  XXX=             91.0056  YYY=            -15.1885  ZZZ=             -0.8233  XYY=            -16.0011
  XXY=            -65.4396  XXZ=             -4.6122  XZZ=              9.3540  YZZ=             -1.9691
  YYZ=              0.3747  XYZ=              0.0711
 Hexadecapole moment (field-independent basis, Debye-Ang**3):
 XXXX=          -2268.7705 YYYY=           -459.1280 ZZZZ=           -233.1692 XXXY=             34.7837
 XXXZ=           -126.8868 YYYX=             27.6181 YYYZ=            -19.3574 ZZZX=              6.5312
 ZZZY=             -4.0941 XXYY=           -406.5610 XXZZ=           -426.4987 YYZZ=           -123.5039
 XXYZ=             20.3608 YYXZ=              4.4048 ZZXY=             -3.4929
 N-N= 7.826891444155D+02 E-N=-3.177044796008D+03  KE= 6.812461010292D+02

 Test job not archived.
 1\1\GINC-TERMINUS\FOpt\RB3LYP\6-31G(d)\C6H12O6\FRODOX\04-Jan-2018\0\\#
 B3LYP/6-31G* fopt test\\Sugars/R-R-S-Fructuose.xyz\\0,1\C,-0.325881139
 6,0.4174529917,0.2816027753\O,-0.2800482365,-0.1012673584,1.5914851591
 \H,0.3710310734,0.4191368819,2.0847153514\H,0.6618184378,0.4991909092,
 -0.1963740965\H,-0.772211077,1.4280367429,0.2413836831\C,-1.172329025,
 -0.4798126595,-0.5949219856\O,-1.6747428482,-1.5140642394,-0.192815394
 8\C,-1.4283679917,-0.0688513428,-2.056151765\C,-0.1513986226,-0.227986
 2616,-2.9342979835\C,-0.4599913005,0.126731564,-4.3976943483\C,0.62536
 8108,-0.3716827123,-5.3493754001\H,0.577310853,-1.4665650222,-5.438099
 7784\H,1.6122107322,-0.0908706615,-4.9567002834\O,0.3692804649,0.26452
 88476,-6.6052299232\H,1.1543322124,0.1729242306,-7.1645509982\H,-1.734
 4827612,0.9867129085,-2.0946833381\O,-2.4531788056,-0.8817990892,-2.57
 76750993\H,-2.579219204,-1.5835863432,-1.9048442822\H,0.1674764213,-1.
 2755944119,-2.8682497882\O,0.9232407706,0.5811115642,-2.4769177275\H,0
 .7834347785,1.4376605761,-2.9275819938\H,-1.4283024474,-0.2988184007,-
 4.6846466689\O,-0.5078172116,1.5565724276,-4.448103123\H,-0.3599111811
 ,1.7824538583,-5.3842679908\\Version=EM64L-G09RevB.01\State=1-A\HF=-68
 7.1380625\RMSD=8.133e-09\RMSF=1.862e-05\Dipole=1.4792475,0.8280209,-0.
 9783789\Quadrupole=-2.2386347,-1.2551441,3.4937788,-0.2944362,-2.51624
 04,7.1750297\PG=C01 [X(C6H12O6)]\\@


 IF MATHEMATICALLY YOU END UP WITH THE INCORRECT ANSWER,
 TRY MULTIPLYING BY THE PAGE NUMBER.
 Job cpu time:  0 days  0 hours 46 minutes  5.6 seconds.
 File lengths (MBytes):  RWF=     27 Int=      0 D2E=      0 Chk=      4 Scr=      1
 Normal termination of Gaussian 09 at Thu Jan  4 16:13:24 2018.
