 Entering Gaussian System, Link 0=g09
 Input=R-R-R-Fructuose.inp
 Output=R-R-R-Fructuose.log
 Initial command:
 /usr/local/g09/l1.exe /home/g09scr/Gau-904.inp -scrdir=/home/g09scr/
 Entering Link 1 = /usr/local/g09/l1.exe PID=       906.
  
 Copyright (c) 1988,1990,1992,1993,1995,1998,2003,2009,2010,
            Gaussian, Inc.  All Rights Reserved.
  
 This is part of the Gaussian(R) 09 program.  It is based on
 the Gaussian(R) 03 system (copyright 2003, Gaussian, Inc.),
 the Gaussian(R) 98 system (copyright 1998, Gaussian, Inc.),
 the Gaussian(R) 94 system (copyright 1995, Gaussian, Inc.),
 the Gaussian 92(TM) system (copyright 1992, Gaussian, Inc.),
 the Gaussian 90(TM) system (copyright 1990, Gaussian, Inc.),
 the Gaussian 88(TM) system (copyright 1988, Gaussian, Inc.),
 the Gaussian 86(TM) system (copyright 1986, Carnegie Mellon
 University), and the Gaussian 82(TM) system (copyright 1983,
 Carnegie Mellon University). Gaussian is a federally registered
 trademark of Gaussian, Inc.
  
 This software contains proprietary and confidential information,
 including trade secrets, belonging to Gaussian, Inc.
  
 This software is provided under written license and may be
 used, copied, transmitted, or stored only in accord with that
 written license.
  
 The following legend is applicable only to US Government
 contracts under FAR:
  
                    RESTRICTED RIGHTS LEGEND
  
 Use, reproduction and disclosure by the US Government is
 subject to restrictions as set forth in subparagraphs (a)
 and (c) of the Commercial Computer Software - Restricted
 Rights clause in FAR 52.227-19.
  
 Gaussian, Inc.
 340 Quinnipiac St., Bldg. 40, Wallingford CT 06492
  
  
 ---------------------------------------------------------------
 Warning -- This program may not be used in any manner that
 competes with the business of Gaussian, Inc. or will provide
 assistance to any competitor of Gaussian, Inc.  The licensee
 of this program is prohibited from giving any competitor of
 Gaussian, Inc. access to this program.  By using this program,
 the user acknowledges that Gaussian, Inc. is engaged in the
 business of creating and licensing software in the field of
 computational chemistry and represents and warrants to the
 licensee that it is not a competitor of Gaussian, Inc. and that
 it will not use this program in any manner prohibited above.
 ---------------------------------------------------------------
  

 Cite this work as:
 Gaussian 09, Revision B.01,
 M. J. Frisch, G. W. Trucks, H. B. Schlegel, G. E. Scuseria, 
 M. A. Robb, J. R. Cheeseman, G. Scalmani, V. Barone, B. Mennucci, 
 G. A. Petersson, H. Nakatsuji, M. Caricato, X. Li, H. P. Hratchian, 
 A. F. Izmaylov, J. Bloino, G. Zheng, J. L. Sonnenberg, M. Hada, 
 M. Ehara, K. Toyota, R. Fukuda, J. Hasegawa, M. Ishida, T. Nakajima, 
 Y. Honda, O. Kitao, H. Nakai, T. Vreven, J. A. Montgomery, Jr., 
 J. E. Peralta, F. Ogliaro, M. Bearpark, J. J. Heyd, E. Brothers, 
 K. N. Kudin, V. N. Staroverov, T. Keith, R. Kobayashi, J. Normand, 
 K. Raghavachari, A. Rendell, J. C. Burant, S. S. Iyengar, J. Tomasi, 
 M. Cossi, N. Rega, J. M. Millam, M. Klene, J. E. Knox, J. B. Cross, 
 V. Bakken, C. Adamo, J. Jaramillo, R. Gomperts, R. E. Stratmann, 
 O. Yazyev, A. J. Austin, R. Cammi, C. Pomelli, J. W. Ochterski, 
 R. L. Martin, K. Morokuma, V. G. Zakrzewski, G. A. Voth, 
 P. Salvador, J. J. Dannenberg, S. Dapprich, A. D. Daniels, 
 O. Farkas, J. B. Foresman, J. V. Ortiz, J. Cioslowski, 
 and D. J. Fox, Gaussian, Inc., Wallingford CT, 2010.
 
 ******************************************
 Gaussian 09:  EM64L-G09RevB.01 12-Aug-2010
                 4-Jan-2018 
 ******************************************
 %nproc=4
 Will use up to    4 processors via shared memory.
 %mem=60gb
 -----------------------
 #B3LYP/6-31G* fopt test
 -----------------------
 1/14=-1,18=20,19=15,26=3,38=1/1,3;
 2/9=110,12=2,14=103,17=6,18=5,40=1/2;
 3/5=1,6=6,7=1,11=2,16=1,25=1,30=1,71=1,74=-5/1,2,3;
 4//1;
 5/5=2,38=5/2;
 6/7=2,8=2,9=2,10=2,28=1/1;
 7//1,2,3,16;
 1/14=-1,18=20,19=15/3(2);
 2/9=110/2;
 99//99;
 2/9=110/2;
 3/5=1,6=6,7=1,11=2,16=1,25=1,30=1,71=1,74=-5/1,2,3;
 4/5=5,16=3/1;
 5/5=2,38=5/2;
 7//1,2,3,16;
 1/14=-1,18=20,19=15/3(-5);
 2/9=110/2;
 6/7=2,8=2,9=2,10=2,19=2,28=1/1;
 99/9=1/99;
 --------------------------
 Sugars/R-R-R-Fructuose.xyz
 --------------------------
 Symbolic Z-matrix:
 Charge =  0 Multiplicity = 1
 C                     0.        0.        0. 
 O                     0.        0.        1.41352 
 H                     0.92749   0.        1.70592 
 H                     0.51803  -0.89725  -0.34815 
 H                     0.51786   0.89695  -0.34677 
 C                    -1.42147   0.       -0.52884 
 O                    -2.38889  -0.0311    0.23329 
 C                    -1.59838   0.00492  -2.04619 
 C                    -0.29803   0.04539  -2.86317 
 C                    -0.4755    0.02154  -4.39287 
 C                     0.86828   0.04202  -5.12195 
 H                     1.4567   -0.85196  -4.89019 
 H                     1.45026   0.93508  -4.87855 
 O                     0.62907   0.0516   -6.5257 
 H                     1.49772   0.05882  -6.96259 
 H                    -2.23088   0.86564  -2.28847 
 O                    -2.32272  -1.16099  -2.41868 
 H                    -3.17739  -0.87514  -2.78481 
 H                     0.27509  -0.84763  -2.58217 
 O                     0.49379   1.16746  -2.48447 
 H                     1.31496   0.83388  -2.08567 
 H                    -1.05584   0.88784  -4.72949 
 O                    -1.01692  -1.23465  -4.80051 
 H                    -1.82339  -1.05983  -5.31495 
 

 GradGradGradGradGradGradGradGradGradGradGradGradGradGradGradGradGradGrad
 Berny optimization.
 Initialization pass.
                           ----------------------------
                           !    Initial Parameters    !
                           ! (Angstroms and Degrees)  !
 --------------------------                            --------------------------
 ! Name  Definition              Value          Derivative Info.                !
 --------------------------------------------------------------------------------
 ! R1    R(1,2)                  1.4135         estimate D2E/DX2                !
 ! R2    R(1,4)                  1.093          estimate D2E/DX2                !
 ! R3    R(1,5)                  1.0922         estimate D2E/DX2                !
 ! R4    R(1,6)                  1.5167         estimate D2E/DX2                !
 ! R5    R(2,3)                  0.9725         estimate D2E/DX2                !
 ! R6    R(6,7)                  1.232          estimate D2E/DX2                !
 ! R7    R(6,8)                  1.5276         estimate D2E/DX2                !
 ! R8    R(8,9)                  1.5362         estimate D2E/DX2                !
 ! R9    R(8,16)                 1.0953         estimate D2E/DX2                !
 ! R10   R(8,17)                 1.4222         estimate D2E/DX2                !
 ! R11   R(9,10)                 1.5401         estimate D2E/DX2                !
 ! R12   R(9,19)                 1.0977         estimate D2E/DX2                !
 ! R13   R(9,20)                 1.4246         estimate D2E/DX2                !
 ! R14   R(10,11)                1.529          estimate D2E/DX2                !
 ! R15   R(10,22)                1.0957         estimate D2E/DX2                !
 ! R16   R(10,23)                1.4273         estimate D2E/DX2                !
 ! R17   R(11,12)                1.0951         estimate D2E/DX2                !
 ! R18   R(11,13)                1.0934         estimate D2E/DX2                !
 ! R19   R(11,14)                1.424          estimate D2E/DX2                !
 ! R20   R(14,15)                0.9724         estimate D2E/DX2                !
 ! R21   R(17,18)                0.9727         estimate D2E/DX2                !
 ! R22   R(20,21)                0.9719         estimate D2E/DX2                !
 ! R23   R(23,24)                0.9724         estimate D2E/DX2                !
 ! A1    A(2,1,4)              108.574          estimate D2E/DX2                !
 ! A2    A(2,1,5)              108.511          estimate D2E/DX2                !
 ! A3    A(2,1,6)              110.407          estimate D2E/DX2                !
 ! A4    A(4,1,5)              110.3838         estimate D2E/DX2                !
 ! A5    A(4,1,6)              109.4597         estimate D2E/DX2                !
 ! A6    A(5,1,6)              109.4917         estimate D2E/DX2                !
 ! A7    A(1,2,3)              107.498          estimate D2E/DX2                !
 ! A8    A(1,6,7)              121.351          estimate D2E/DX2                !
 ! A9    A(1,6,8)              117.057          estimate D2E/DX2                !
 ! A10   A(7,6,8)              121.5748         estimate D2E/DX2                !
 ! A11   A(6,8,9)              115.486          estimate D2E/DX2                !
 ! A12   A(6,8,16)             106.8055         estimate D2E/DX2                !
 ! A13   A(6,8,17)             108.4505         estimate D2E/DX2                !
 ! A14   A(9,8,16)             110.516          estimate D2E/DX2                !
 ! A15   A(9,8,17)             108.265          estimate D2E/DX2                !
 ! A16   A(16,8,17)            106.9882         estimate D2E/DX2                !
 ! A17   A(8,9,10)             115.484          estimate D2E/DX2                !
 ! A18   A(8,9,19)             106.5213         estimate D2E/DX2                !
 ! A19   A(8,9,20)             110.4787         estimate D2E/DX2                !
 ! A20   A(10,9,19)            107.567          estimate D2E/DX2                !
 ! A21   A(10,9,20)            109.894          estimate D2E/DX2                !
 ! A22   A(19,9,20)            106.4113         estimate D2E/DX2                !
 ! A23   A(9,10,11)            111.847          estimate D2E/DX2                !
 ! A24   A(9,10,22)            110.727          estimate D2E/DX2                !
 ! A25   A(9,10,23)            109.938          estimate D2E/DX2                !
 ! A26   A(11,10,22)           107.9636         estimate D2E/DX2                !
 ! A27   A(11,10,23)           102.0626         estimate D2E/DX2                !
 ! A28   A(22,10,23)           114.0276         estimate D2E/DX2                !
 ! A29   A(10,11,12)           111.125          estimate D2E/DX2                !
 ! A30   A(10,11,13)           111.8759         estimate D2E/DX2                !
 ! A31   A(10,11,14)           108.815          estimate D2E/DX2                !
 ! A32   A(12,11,13)           109.4922         estimate D2E/DX2                !
 ! A33   A(12,11,14)           107.7211         estimate D2E/DX2                !
 ! A34   A(13,11,14)           107.6593         estimate D2E/DX2                !
 ! A35   A(11,14,15)           107.0319         estimate D2E/DX2                !
 ! A36   A(8,17,18)            107.768          estimate D2E/DX2                !
 ! A37   A(9,20,21)            107.96           estimate D2E/DX2                !
 ! A38   A(10,23,24)           107.906          estimate D2E/DX2                !
 ! D1    D(4,1,2,3)             60.0            estimate D2E/DX2                !
 ! D2    D(5,1,2,3)            -60.0            estimate D2E/DX2                !
 ! D3    D(6,1,2,3)            180.0            estimate D2E/DX2                !
 ! D4    D(2,1,6,7)             -1.694          estimate D2E/DX2                !
 ! D5    D(2,1,6,8)            179.793          estimate D2E/DX2                !
 ! D6    D(4,1,6,7)            117.7715         estimate D2E/DX2                !
 ! D7    D(4,1,6,8)            -60.7415         estimate D2E/DX2                !
 ! D8    D(5,1,6,7)           -121.102          estimate D2E/DX2                !
 ! D9    D(5,1,6,8)             60.385          estimate D2E/DX2                !
 ! D10   D(1,6,8,9)             -1.4906         estimate D2E/DX2                !
 ! D11   D(1,6,8,16)          -124.8258         estimate D2E/DX2                !
 ! D12   D(1,6,8,17)           120.1809         estimate D2E/DX2                !
 ! D13   D(7,6,8,9)            180.0            estimate D2E/DX2                !
 ! D14   D(7,6,8,16)            56.6647         estimate D2E/DX2                !
 ! D15   D(7,6,8,17)           -58.3286         estimate D2E/DX2                !
 ! D16   D(6,8,9,10)           178.812          estimate D2E/DX2                !
 ! D17   D(6,8,9,19)            59.4631         estimate D2E/DX2                !
 ! D18   D(6,8,9,20)           -55.71           estimate D2E/DX2                !
 ! D19   D(16,8,9,10)          -59.8319         estimate D2E/DX2                !
 ! D20   D(16,8,9,19)         -179.1809         estimate D2E/DX2                !
 ! D21   D(16,8,9,20)           65.6461         estimate D2E/DX2                !
 ! D22   D(17,8,9,10)           57.041          estimate D2E/DX2                !
 ! D23   D(17,8,9,19)          -62.3079         estimate D2E/DX2                !
 ! D24   D(17,8,9,20)         -177.481          estimate D2E/DX2                !
 ! D25   D(6,8,17,18)          114.8739         estimate D2E/DX2                !
 ! D26   D(9,8,17,18)         -119.126          estimate D2E/DX2                !
 ! D27   D(16,8,17,18)          -0.0001         estimate D2E/DX2                !
 ! D28   D(8,9,10,11)         -179.087          estimate D2E/DX2                !
 ! D29   D(8,9,10,22)           60.4499         estimate D2E/DX2                !
 ! D30   D(8,9,10,23)          -66.447          estimate D2E/DX2                !
 ! D31   D(19,9,10,11)         -60.315          estimate D2E/DX2                !
 ! D32   D(19,9,10,22)         179.222          estimate D2E/DX2                !
 ! D33   D(19,9,10,23)          52.325          estimate D2E/DX2                !
 ! D34   D(20,9,10,11)          55.135          estimate D2E/DX2                !
 ! D35   D(20,9,10,22)         -65.3281         estimate D2E/DX2                !
 ! D36   D(20,9,10,23)         167.775          estimate D2E/DX2                !
 ! D37   D(8,9,20,21)          115.2421         estimate D2E/DX2                !
 ! D38   D(10,9,20,21)        -116.1799         estimate D2E/DX2                !
 ! D39   D(19,9,20,21)           0.0            estimate D2E/DX2                !
 ! D40   D(9,10,11,12)          62.961          estimate D2E/DX2                !
 ! D41   D(9,10,11,13)         -59.764          estimate D2E/DX2                !
 ! D42   D(9,10,11,14)        -178.59           estimate D2E/DX2                !
 ! D43   D(22,10,11,12)       -174.9777         estimate D2E/DX2                !
 ! D44   D(22,10,11,13)         62.2974         estimate D2E/DX2                !
 ! D45   D(22,10,11,14)        -56.5287         estimate D2E/DX2                !
 ! D46   D(23,10,11,12)        -54.514          estimate D2E/DX2                !
 ! D47   D(23,10,11,13)       -177.2389         estimate D2E/DX2                !
 ! D48   D(23,10,11,14)         63.935          estimate D2E/DX2                !
 ! D49   D(9,10,23,24)         125.0235         estimate D2E/DX2                !
 ! D50   D(11,10,23,24)       -116.1399         estimate D2E/DX2                !
 ! D51   D(22,10,23,24)          0.0            estimate D2E/DX2                !
 ! D52   D(10,11,14,15)       -179.647          estimate D2E/DX2                !
 ! D53   D(12,11,14,15)        -59.077          estimate D2E/DX2                !
 ! D54   D(13,11,14,15)         58.9155         estimate D2E/DX2                !
 --------------------------------------------------------------------------------
 Trust Radius=3.00D-01 FncErr=1.00D-07 GrdErr=1.00D-06
 Number of steps in this run=    125 maximum allowed number of steps=    144.
 GradGradGradGradGradGradGradGradGradGradGradGradGradGradGradGradGradGrad

                          Input orientation:                          
 ---------------------------------------------------------------------
 Center     Atomic      Atomic             Coordinates (Angstroms)
 Number     Number       Type             X           Y           Z
 ---------------------------------------------------------------------
      1          6           0        0.000000    0.000000    0.000000
      2          8           0        0.000000    0.000000    1.413516
      3          1           0        0.927487    0.000000    1.705916
      4          1           0        0.518025   -0.897246   -0.348146
      5          1           0        0.517855    0.896952   -0.346765
      6          6           0       -1.421472    0.000000   -0.528838
      7          8           0       -2.388894   -0.031101    0.233292
      8          6           0       -1.598381    0.004915   -2.046186
      9          6           0       -0.298033    0.045392   -2.863171
     10          6           0       -0.475503    0.021535   -4.392866
     11          6           0        0.868280    0.042020   -5.121945
     12          1           0        1.456696   -0.851959   -4.890189
     13          1           0        1.450260    0.935079   -4.878545
     14          8           0        0.629072    0.051603   -6.525700
     15          1           0        1.497715    0.058819   -6.962591
     16          1           0       -2.230879    0.865635   -2.288466
     17          8           0       -2.322721   -1.160985   -2.418677
     18          1           0       -3.177394   -0.875136   -2.784805
     19          1           0        0.275090   -0.847631   -2.582168
     20          8           0        0.493788    1.167463   -2.484467
     21          1           0        1.314964    0.833878   -2.085668
     22          1           0       -1.055845    0.887837   -4.729486
     23          8           0       -1.016917   -1.234648   -4.800512
     24          1           0       -1.823387   -1.059831   -5.314954
 ---------------------------------------------------------------------
                    Distance matrix (angstroms):
                    1          2          3          4          5
     1  C    0.000000
     2  O    1.413516   0.000000
     3  H    1.941747   0.972486   0.000000
     4  H    1.092980   2.043735   2.278570   0.000000
     5  H    1.092219   2.042373   2.277240   1.794199   0.000000
     6  C    1.516658   2.406932   3.242180   2.144609   2.144449
     7  O    2.400460   2.664716   3.628770   3.088439   3.105952
     8  C    2.596483   3.811087   4.523086   2.859442   2.856959
     9  C    2.878998   4.287299   4.730805   2.807110   2.779051
    10  C    4.418579   5.825859   6.258114   4.265093   4.257235
    11  C    5.195190   6.593021   6.828247   4.877915   4.863749
    12  H    5.173176   6.525680   6.671919   4.638244   4.958106
    13  H    5.174730   6.524390   6.671041   4.975037   4.626863
    14  O    6.556154   7.964267   8.237185   6.250985   6.237485
    15  H    7.122098   8.509158   8.687441   6.754608   6.740308
    16  H    3.311076   4.408040   5.165238   3.798561   3.365520
    17  O    3.548650   4.629106   5.378104   3.525123   4.073917
    18  H    4.314723   5.337377   6.146746   4.426502   4.768564
    19  H    2.731619   4.093854   4.419476   2.247740   2.845968
    20  O    2.789153   4.098911   4.371541   2.971107   2.154884
    21  H    2.602786   3.829983   3.901487   2.578931   1.913934
    22  H    4.926571   6.295994   6.792368   4.985953   4.656700
    23  O    5.059979   6.416589   6.902077   4.721594   5.170600
    24  H    5.718104   7.051262   7.614668   5.493435   5.830379
                    6          7          8          9         10
     6  C    0.000000
     7  O    1.231956   0.000000
     8  C    1.527634   2.412929   0.000000
     9  C    2.591001   3.737062   1.536232   0.000000
    10  C    3.978195   5.006513   2.601545   1.540140   0.000000
    11  C    5.132384   6.268420   3.942853   2.542117   1.528963
    12  H    5.294437   6.458516   4.260995   2.827210   2.178007
    13  H    5.295391   6.465561   4.263997   2.812437   2.186095
    14  O    6.337961   7.402630   5.002976   3.778053   2.402076
    15  H    7.065288   8.178909   5.810314   4.475504   3.240134
    16  H    2.121498   2.681113   1.095259   2.176919   2.867464
    17  O    2.394082   2.883393   1.422231   2.398392   2.950930
    18  H    2.989734   3.231569   1.952775   3.023943   3.269571
    19  H    2.795168   3.961104   2.126971   1.097690   2.144170
    20  O    2.975849   4.139158   2.433265   1.424584   2.427893
    21  H    3.256863   4.454697   3.029244   1.956523   3.031309
    22  H    4.308988   5.220214   2.876455   2.183375   1.095714
    23  O    4.464887   5.354440   3.075862   2.430758   1.427340
    24  H    4.918504   5.671077   3.445164   3.091838   1.958670
                   11         12         13         14         15
    11  C    0.000000
    12  H    1.095054   0.000000
    13  H    1.093389   1.787088   0.000000
    14  O    1.424023   2.043595   2.041568   0.000000
    15  H    1.945366   2.264078   2.261268   0.972351   0.000000
    16  H    4.279221   4.828799   4.501568   5.176497   6.033308
    17  O    4.351708   4.526352   4.967879   5.201066   6.060595
    18  H    4.761394   5.089987   5.392199   5.416856   6.338991
    19  H    2.755689   2.592908   3.135670   4.060218   4.637302
    20  O    2.891912   3.285233   2.588523   4.194641   4.721287
    21  H    3.169471   3.275282   2.797983   4.560295   4.941507
    22  H    2.138150   3.060323   2.510978   2.600888   3.492091
    23  O    2.299384   2.504647   3.286452   2.709243   3.559637
    24  H    2.914858   3.313998   3.858352   2.952244   3.872442
                   16         17         18         19         20
    16  H    0.000000
    17  O    2.032874   0.000000
    18  H    2.042676   0.972741   0.000000
    19  H    3.049823   2.621744   3.458535   0.000000
    20  O    2.748332   3.654958   4.211887   2.029280   0.000000
    21  H    3.551780   4.162106   4.857036   2.038461   0.971931
    22  H    2.709202   3.338036   3.375030   3.064998   2.742200
    23  O    3.492172   2.717294   2.976573   2.596173   3.662845
    24  H    3.610138   2.940746   2.875604   3.452065   4.282732
                   21         22         23         24
    21  H    0.000000
    22  H    3.551538   0.000000
    23  O    4.133624   2.124030   0.000000
    24  H    4.885045   2.173776   0.972422   0.000000
 Stoichiometry    C6H12O6
 Framework group  C1[X(C6H12O6)]
 Deg. of freedom    66
 Full point group                 C1      NOp   1
 Largest Abelian subgroup         C1      NOp   1
 Largest concise Abelian subgroup C1      NOp   1
                         Standard orientation:                         
 ---------------------------------------------------------------------
 Center     Atomic      Atomic             Coordinates (Angstroms)
 Number     Number       Type             X           Y           Z
 ---------------------------------------------------------------------
      1          6           0       -2.368716   -0.970327   -0.360544
      2          8           0       -3.756492   -1.203554   -0.493621
      3          1           0       -3.868884   -2.095966   -0.863351
      4          1           0       -1.907083   -1.043446   -1.348550
      5          1           0       -1.952986   -1.725258    0.310418
      6          6           0       -2.117229    0.410704    0.213704
      7          8           0       -3.046914    1.177284    0.470130
      8          6           0       -0.660952    0.820212    0.426372
      9          6           0        0.385060   -0.243898    0.060944
     10          6           0        1.854067    0.179091    0.248377
     11          6           0        2.822450   -0.931460   -0.159837
     12          1           0        2.727918   -1.165571   -1.225388
     13          1           0        2.670935   -1.840652    0.428304
     14          8           0        4.155353   -0.485766    0.069438
     15          1           0        4.747710   -1.207029   -0.203249
     16          1           0       -0.563565    1.108818    1.478424
     17          8           0       -0.402740    1.983946   -0.349379
     18          1           0       -0.211340    2.713636    0.264742
     19          1           0        0.239273   -0.472578   -1.002716
     20          8           0        0.134544   -1.453422    0.770686
     21          1           0       -0.094055   -2.139877    0.121708
     22          1           0        2.053761    0.433672    1.295230
     23          8           0        2.183487    1.216438   -0.675037
     24          1           0        2.532332    1.968915   -0.167405
 ---------------------------------------------------------------------
 Rotational constants (GHZ):      1.8332093      0.4568109      0.3886639
 Standard basis: 6-31G(d) (6D, 7F)
 There are   204 symmetry adapted basis functions of A   symmetry.
 Integral buffers will be    131072 words long.
 Raffenetti 2 integral format.
 Two-electron integral symmetry is turned on.
   204 basis functions,   384 primitive gaussians,   204 cartesian basis functions
    48 alpha electrons       48 beta electrons
       nuclear repulsion energy       781.0695107612 Hartrees.
 NAtoms=   24 NActive=   24 NUniq=   24 SFac= 1.00D+00 NAtFMM=   50 NAOKFM=F Big=F
 One-electron integrals computed using PRISM.
 NBasis=   204 RedAO= T  NBF=   204
 NBsUse=   204 1.00D-06 NBFU=   204
 Harris functional with IExCor=  402 diagonalized for initial guess.
 ExpMin= 1.61D-01 ExpMax= 5.48D+03 ExpMxC= 8.25D+02 IAcc=1 IRadAn=         1 AccDes= 0.00D+00
 HarFok:  IExCor=  402 AccDes= 0.00D+00 IRadAn=         1 IDoV= 1
 ScaDFX=  1.000000  1.000000  1.000000  1.000000
 FoFCou: FMM=F IPFlag=           0 FMFlag=      100000 FMFlg1=           0
         NFxFlg=           0 DoJE=T BraDBF=F KetDBF=T FulRan=T
         Omega=  0.000000  0.000000  1.000000  0.000000  0.000000 ICntrl=     500 IOpCl=  0
         NMat0=    1 NMatS0=    1 NMatT0=    0 NMatD0=    1 NMtDS0=    0 NMtDT0=    0
         I1Cent=           4 NGrid=           0.
 Petite list used in FoFCou.
 Initial guess orbital symmetries:
       Occupied  (A) (A) (A) (A) (A) (A) (A) (A) (A) (A) (A) (A)
                 (A) (A) (A) (A) (A) (A) (A) (A) (A) (A) (A) (A)
                 (A) (A) (A) (A) (A) (A) (A) (A) (A) (A) (A) (A)
                 (A) (A) (A) (A) (A) (A) (A) (A) (A) (A) (A) (A)
       Virtual   (A) (A) (A) (A) (A) (A) (A) (A) (A) (A) (A) (A)
                 (A) (A) (A) (A) (A) (A) (A) (A) (A) (A) (A) (A)
                 (A) (A) (A) (A) (A) (A) (A) (A) (A) (A) (A) (A)
                 (A) (A) (A) (A) (A) (A) (A) (A) (A) (A) (A) (A)
                 (A) (A) (A) (A) (A) (A) (A) (A) (A) (A) (A) (A)
                 (A) (A) (A) (A) (A) (A) (A) (A) (A) (A) (A) (A)
                 (A) (A) (A) (A) (A) (A) (A) (A) (A) (A) (A) (A)
                 (A) (A) (A) (A) (A) (A) (A) (A) (A) (A) (A) (A)
                 (A) (A) (A) (A) (A) (A) (A) (A) (A) (A) (A) (A)
                 (A) (A) (A) (A) (A) (A) (A) (A) (A) (A) (A) (A)
                 (A) (A) (A) (A) (A) (A) (A) (A) (A) (A) (A) (A)
                 (A) (A) (A) (A) (A) (A) (A) (A) (A) (A) (A) (A)
                 (A) (A) (A) (A) (A) (A) (A) (A) (A) (A) (A) (A)
 The electronic state of the initial guess is 1-A.
 Requested convergence on RMS density matrix=1.00D-08 within 128 cycles.
 Requested convergence on MAX density matrix=1.00D-06.
 Requested convergence on             energy=1.00D-06.
 No special actions if energy rises.
 Keep R1 ints in memory in canonical form, NReq=223281102.
 Integral accuracy reduced to 1.0D-05 until final iterations.
 Initial convergence to 1.0D-05 achieved.  Increase integral accuracy.
 SCF Done:  E(RB3LYP) =  -687.083727565     A.U. after   14 cycles
             Convg  =    0.5138D-08             -V/T =  2.0084

 **********************************************************************

            Population analysis using the SCF density.

 **********************************************************************

 Orbital symmetries:
       Occupied  (A) (A) (A) (A) (A) (A) (A) (A) (A) (A) (A) (A)
                 (A) (A) (A) (A) (A) (A) (A) (A) (A) (A) (A) (A)
                 (A) (A) (A) (A) (A) (A) (A) (A) (A) (A) (A) (A)
                 (A) (A) (A) (A) (A) (A) (A) (A) (A) (A) (A) (A)
       Virtual   (A) (A) (A) (A) (A) (A) (A) (A) (A) (A) (A) (A)
                 (A) (A) (A) (A) (A) (A) (A) (A) (A) (A) (A) (A)
                 (A) (A) (A) (A) (A) (A) (A) (A) (A) (A) (A) (A)
                 (A) (A) (A) (A) (A) (A) (A) (A) (A) (A) (A) (A)
                 (A) (A) (A) (A) (A) (A) (A) (A) (A) (A) (A) (A)
                 (A) (A) (A) (A) (A) (A) (A) (A) (A) (A) (A) (A)
                 (A) (A) (A) (A) (A) (A) (A) (A) (A) (A) (A) (A)
                 (A) (A) (A) (A) (A) (A) (A) (A) (A) (A) (A) (A)
                 (A) (A) (A) (A) (A) (A) (A) (A) (A) (A) (A) (A)
                 (A) (A) (A) (A) (A) (A) (A) (A) (A) (A) (A) (A)
                 (A) (A) (A) (A) (A) (A) (A) (A) (A) (A) (A) (A)
                 (A) (A) (A) (A) (A) (A) (A) (A) (A) (A) (A) (A)
                 (A) (A) (A) (A) (A) (A) (A) (A) (A) (A) (A) (A)
 The electronic state is 1-A.
 Alpha  occ. eigenvalues --  -19.17013 -19.15423 -19.14624 -19.14353 -19.14230
 Alpha  occ. eigenvalues --  -19.14025 -10.27715 -10.25311 -10.25209 -10.24536
 Alpha  occ. eigenvalues --  -10.24363 -10.22799  -1.05339  -1.04105  -1.02894
 Alpha  occ. eigenvalues --   -1.02416  -1.01061  -1.00355  -0.78476  -0.75216
 Alpha  occ. eigenvalues --   -0.70851  -0.65056  -0.59142  -0.56889  -0.54357
 Alpha  occ. eigenvalues --   -0.52873  -0.52583  -0.51290  -0.50158  -0.47987
 Alpha  occ. eigenvalues --   -0.47056  -0.44411  -0.43256  -0.42645  -0.41232
 Alpha  occ. eigenvalues --   -0.40119  -0.36817  -0.35980  -0.34983  -0.34449
 Alpha  occ. eigenvalues --   -0.33397  -0.32637  -0.31154  -0.30050  -0.27174
 Alpha  occ. eigenvalues --   -0.26339  -0.25910  -0.23498
 Alpha virt. eigenvalues --   -0.03102   0.03130   0.05217   0.06371   0.06957
 Alpha virt. eigenvalues --    0.09007   0.11297   0.13426   0.14275   0.15568
 Alpha virt. eigenvalues --    0.15926   0.17251   0.17605   0.19266   0.20946
 Alpha virt. eigenvalues --    0.21438   0.22351   0.23675   0.25151   0.26903
 Alpha virt. eigenvalues --    0.29477   0.31689   0.34244   0.37466   0.52115
 Alpha virt. eigenvalues --    0.53443   0.54360   0.55515   0.56076   0.58939
 Alpha virt. eigenvalues --    0.60565   0.61547   0.63943   0.64419   0.66459
 Alpha virt. eigenvalues --    0.67055   0.69083   0.71472   0.72409   0.74368
 Alpha virt. eigenvalues --    0.77108   0.79197   0.80284   0.80803   0.81341
 Alpha virt. eigenvalues --    0.82808   0.83745   0.85475   0.85621   0.86978
 Alpha virt. eigenvalues --    0.88625   0.89124   0.90518   0.91461   0.92998
 Alpha virt. eigenvalues --    0.94084   0.95359   0.96919   0.98589   0.99717
 Alpha virt. eigenvalues --    1.00475   1.01134   1.02441   1.03717   1.06249
 Alpha virt. eigenvalues --    1.08730   1.11528   1.14518   1.15451   1.16624
 Alpha virt. eigenvalues --    1.18446   1.20298   1.24383   1.28594   1.32087
 Alpha virt. eigenvalues --    1.33480   1.35110   1.37275   1.40573   1.42285
 Alpha virt. eigenvalues --    1.48224   1.51253   1.52492   1.59376   1.60364
 Alpha virt. eigenvalues --    1.62129   1.64008   1.65441   1.66884   1.71101
 Alpha virt. eigenvalues --    1.72333   1.73792   1.75004   1.75486   1.78146
 Alpha virt. eigenvalues --    1.78803   1.80626   1.82620   1.84933   1.87375
 Alpha virt. eigenvalues --    1.89220   1.90474   1.91610   1.95133   1.97090
 Alpha virt. eigenvalues --    1.98580   2.00462   2.01963   2.06603   2.08175
 Alpha virt. eigenvalues --    2.08644   2.11574   2.13535   2.16451   2.17110
 Alpha virt. eigenvalues --    2.20875   2.21917   2.25407   2.28122   2.33736
 Alpha virt. eigenvalues --    2.35404   2.36093   2.40885   2.42939   2.46545
 Alpha virt. eigenvalues --    2.48003   2.49871   2.51926   2.52122   2.55530
 Alpha virt. eigenvalues --    2.59152   2.61799   2.63580   2.67285   2.69391
 Alpha virt. eigenvalues --    2.69579   2.79494   2.87657   2.89563   2.94736
 Alpha virt. eigenvalues --    2.97622   2.98196   3.00641   3.04884   3.63822
 Alpha virt. eigenvalues --    3.76430   3.81082   3.87955   3.92637   4.05618
 Alpha virt. eigenvalues --    4.16003   4.29078   4.39297   4.41993   4.54592
 Alpha virt. eigenvalues --    4.71865
          Condensed to atoms (all electrons):
              1          2          3          4          5          6
     1  C    5.199492   0.218336  -0.022156   0.347915   0.335574   0.258586
     2  O    0.218336   8.253353   0.231866  -0.037225  -0.032333  -0.033051
     3  H   -0.022156   0.231866   0.400326  -0.004207  -0.004026   0.006522
     4  H    0.347915  -0.037225  -0.004207   0.621228  -0.047028  -0.038035
     5  H    0.335574  -0.032333  -0.004026  -0.047028   0.594493  -0.026228
     6  C    0.258586  -0.033051   0.006522  -0.038035  -0.026228   4.652198
     7  O   -0.081606   0.002789   0.000236   0.000011   0.000225   0.561971
     8  C   -0.124911   0.001886  -0.000225   0.007609   0.004579   0.268921
     9  C    0.005691   0.000096   0.000018  -0.002913  -0.005857  -0.041497
    10  C    0.000026   0.000000   0.000000   0.000149   0.000354   0.002154
    11  C    0.000019   0.000000   0.000000  -0.000008  -0.000035  -0.000059
    12  H   -0.000004   0.000000   0.000000  -0.000009  -0.000002   0.000005
    13  H   -0.000001   0.000000   0.000000   0.000001  -0.000001   0.000006
    14  O    0.000000   0.000000   0.000000   0.000000   0.000000   0.000000
    15  H    0.000000   0.000000   0.000000   0.000000   0.000000   0.000000
    16  H    0.006771  -0.000047   0.000005   0.000172  -0.000376  -0.030402
    17  O    0.002611  -0.000006   0.000001  -0.000071   0.000103  -0.044069
    18  H   -0.000225   0.000001   0.000000  -0.000019  -0.000002   0.001521
    19  H   -0.000195  -0.000057   0.000007   0.006173   0.000429  -0.007837
    20  O   -0.016032   0.000272   0.000010  -0.000775   0.021439   0.002286
    21  H    0.006516  -0.000199  -0.000054   0.000647  -0.000060  -0.001775
    22  H   -0.000006   0.000000   0.000000  -0.000003   0.000000  -0.000004
    23  O    0.000000   0.000000   0.000000  -0.000004  -0.000004  -0.000038
    24  H    0.000000   0.000000   0.000000   0.000000   0.000000   0.000022
              7          8          9         10         11         12
     1  C   -0.081606  -0.124911   0.005691   0.000026   0.000019  -0.000004
     2  O    0.002789   0.001886   0.000096   0.000000   0.000000   0.000000
     3  H    0.000236  -0.000225   0.000018   0.000000   0.000000   0.000000
     4  H    0.000011   0.007609  -0.002913   0.000149  -0.000008  -0.000009
     5  H    0.000225   0.004579  -0.005857   0.000354  -0.000035  -0.000002
     6  C    0.561971   0.268921  -0.041497   0.002154  -0.000059   0.000005
     7  O    8.002351  -0.058095   0.003004  -0.000044   0.000000   0.000000
     8  C   -0.058095   5.162908   0.277816  -0.028210   0.003582  -0.000040
     9  C    0.003004   0.277816   5.081733   0.295836  -0.052077  -0.003595
    10  C   -0.000044  -0.028210   0.295836   4.940438   0.351408  -0.030971
    11  C    0.000000   0.003582  -0.052077   0.351408   4.912779   0.351980
    12  H    0.000000  -0.000040  -0.003595  -0.030971   0.351980   0.647579
    13  H    0.000000  -0.000025   0.002381  -0.038175   0.343758  -0.051383
    14  O    0.000000  -0.000020   0.001889  -0.042849   0.240533  -0.041329
    15  H    0.000000   0.000002  -0.000230   0.006051  -0.022803  -0.004150
    16  H   -0.001535   0.341347  -0.044544  -0.007561  -0.000090   0.000005
    17  O   -0.001368   0.223776  -0.059001   0.005083   0.000048  -0.000011
    18  H    0.000894  -0.012313   0.004111   0.000624   0.000057   0.000001
    19  H   -0.000015  -0.051355   0.355451  -0.041197  -0.009456   0.006372
    20  O   -0.000056  -0.036051   0.167747  -0.042860   0.002959   0.000154
    21  H    0.000010   0.006717  -0.016445   0.001647   0.000608  -0.000045
    22  H    0.000000  -0.007427  -0.043385   0.350597  -0.047565   0.007129
    23  O    0.000000   0.001533  -0.042522   0.212765  -0.067061  -0.002788
    24  H    0.000000   0.000412   0.003427  -0.015338   0.004488  -0.000163
             13         14         15         16         17         18
     1  C   -0.000001   0.000000   0.000000   0.006771   0.002611  -0.000225
     2  O    0.000000   0.000000   0.000000  -0.000047  -0.000006   0.000001
     3  H    0.000000   0.000000   0.000000   0.000005   0.000001   0.000000
     4  H    0.000001   0.000000   0.000000   0.000172  -0.000071  -0.000019
     5  H   -0.000001   0.000000   0.000000  -0.000376   0.000103  -0.000002
     6  C    0.000006   0.000000   0.000000  -0.030402  -0.044069   0.001521
     7  O    0.000000   0.000000   0.000000  -0.001535  -0.001368   0.000894
     8  C   -0.000025  -0.000020   0.000002   0.341347   0.223776  -0.012313
     9  C    0.002381   0.001889  -0.000230  -0.044544  -0.059001   0.004111
    10  C   -0.038175  -0.042849   0.006051  -0.007561   0.005083   0.000624
    11  C    0.343758   0.240533  -0.022803  -0.000090   0.000048   0.000057
    12  H   -0.051383  -0.041329  -0.004150   0.000005  -0.000011   0.000001
    13  H    0.652819  -0.040251  -0.004168   0.000010   0.000000  -0.000001
    14  O   -0.040251   8.273632   0.235252  -0.000001   0.000000   0.000000
    15  H   -0.004168   0.235252   0.397773   0.000000   0.000000   0.000000
    16  H    0.000010  -0.000001   0.000000   0.613237  -0.025499  -0.014861
    17  O    0.000000   0.000000   0.000000  -0.025499   8.255481   0.231530
    18  H   -0.000001   0.000000   0.000000  -0.014861   0.231530   0.385626
    19  H    0.000363  -0.000041  -0.000001   0.007025   0.003218  -0.000318
    20  O    0.008804   0.000077   0.000008   0.002051   0.001320  -0.000090
    21  H    0.000458  -0.000002  -0.000002  -0.000379  -0.000138   0.000002
    22  H   -0.002373   0.003394  -0.000165   0.004454  -0.000082  -0.000003
    23  O    0.005321   0.002172   0.000094  -0.000009  -0.006641   0.003072
    24  H   -0.000325   0.001040  -0.000003  -0.000007   0.003109   0.000156
             19         20         21         22         23         24
     1  C   -0.000195  -0.016032   0.006516  -0.000006   0.000000   0.000000
     2  O   -0.000057   0.000272  -0.000199   0.000000   0.000000   0.000000
     3  H    0.000007   0.000010  -0.000054   0.000000   0.000000   0.000000
     4  H    0.006173  -0.000775   0.000647  -0.000003  -0.000004   0.000000
     5  H    0.000429   0.021439  -0.000060   0.000000  -0.000004   0.000000
     6  C   -0.007837   0.002286  -0.001775  -0.000004  -0.000038   0.000022
     7  O   -0.000015  -0.000056   0.000010   0.000000   0.000000   0.000000
     8  C   -0.051355  -0.036051   0.006717  -0.007427   0.001533   0.000412
     9  C    0.355451   0.167747  -0.016445  -0.043385  -0.042522   0.003427
    10  C   -0.041197  -0.042860   0.001647   0.350597   0.212765  -0.015338
    11  C   -0.009456   0.002959   0.000608  -0.047565  -0.067061   0.004488
    12  H    0.006372   0.000154  -0.000045   0.007129  -0.002788  -0.000163
    13  H    0.000363   0.008804   0.000458  -0.002373   0.005321  -0.000325
    14  O   -0.000041   0.000077  -0.000002   0.003394   0.002172   0.001040
    15  H   -0.000001   0.000008  -0.000002  -0.000165   0.000094  -0.000003
    16  H    0.007025   0.002051  -0.000379   0.004454  -0.000009  -0.000007
    17  O    0.003218   0.001320  -0.000138  -0.000082  -0.006641   0.003109
    18  H   -0.000318  -0.000090   0.000002  -0.000003   0.003072   0.000156
    19  H    0.637393  -0.035034  -0.015607   0.006978   0.002660  -0.000294
    20  O   -0.035034   8.321266   0.226333   0.001639   0.001233  -0.000072
    21  H   -0.015607   0.226333   0.390410  -0.000285  -0.000051  -0.000002
    22  H    0.006978   0.001639  -0.000285   0.631435  -0.028263  -0.011515
    23  O    0.002660   0.001233  -0.000051  -0.028263   8.284486   0.230331
    24  H   -0.000294  -0.000072  -0.000002  -0.011515   0.230331   0.390496
 Mulliken atomic charges:
              1
     1  C   -0.136402
     2  O   -0.605680
     3  H    0.391678
     4  H    0.146392
     5  H    0.158754
     6  C    0.468803
     7  O   -0.428773
     8  C    0.017583
     9  C    0.112867
    10  C    0.080074
    11  C   -0.013068
    12  H    0.121265
    13  H    0.122783
    14  O   -0.633496
    15  H    0.392341
    16  H    0.150235
    17  O   -0.589393
    18  H    0.400237
    19  H    0.135338
    20  O   -0.626629
    21  H    0.401695
    22  H    0.135448
    23  O   -0.596288
    24  H    0.394237
 Sum of Mulliken atomic charges =   0.00000
 Mulliken charges with hydrogens summed into heavy atoms:
              1
     1  C    0.168744
     2  O   -0.214003
     6  C    0.468803
     7  O   -0.428773
     8  C    0.167818
     9  C    0.248205
    10  C    0.215522
    11  C    0.230980
    14  O   -0.241155
    17  O   -0.189155
    20  O   -0.224934
    23  O   -0.202051
 Sum of Mulliken charges with hydrogens summed into heavy atoms =   0.00000
 Electronic spatial extent (au):  <R**2>=           2751.7638
 Charge=              0.0000 electrons
 Dipole moment (field-independent basis, Debye):
    X=              3.1893    Y=             -3.4527    Z=             -0.0334  Tot=              4.7004
 Quadrupole moment (field-independent basis, Debye-Ang):
   XX=            -84.5016   YY=            -55.7970   ZZ=            -71.2920
   XY=              6.5301   XZ=              3.5450   YZ=             10.3975
 Traceless Quadrupole moment (field-independent basis, Debye-Ang):
   XX=            -13.9714   YY=             14.7332   ZZ=             -0.7618
   XY=              6.5301   XZ=              3.5450   YZ=             10.3975
 Octapole moment (field-independent basis, Debye-Ang**2):
  XXX=             82.3676  YYY=              1.4133  ZZZ=             -1.5347  XYY=              8.6267
  XXY=            -56.8790  XXZ=            -18.5609  XZZ=             -5.7445  YZZ=             -0.2475
  YYZ=             -0.9690  XYZ=              2.0992
 Hexadecapole moment (field-independent basis, Debye-Ang**3):
 XXXX=          -2572.8166 YYYY=           -459.1356 ZZZZ=           -166.2365 XXXY=            -19.5341
 XXXZ=             -1.7049 YYYX=             83.4351 YYYZ=             34.0743 ZZZX=              4.0890
 ZZZY=              7.6503 XXYY=           -383.9261 XXZZ=           -437.1116 YYZZ=           -128.6561
 XXYZ=             43.2517 YYXZ=             21.6303 ZZXY=              8.4111
 N-N= 7.810695107612D+02 E-N=-3.174120032773D+03  KE= 6.813429256018D+02
 Calling FoFJK, ICntrl=      2127 FMM=F ISym2X=0 I1Cent= 0 IOpClX= 0 NMat=1 NMatS=1 NMatT=0.
 ***** Axes restored to original set *****
 -------------------------------------------------------------------
 Center     Atomic                   Forces (Hartrees/Bohr)
 Number     Number              X              Y              Z
 -------------------------------------------------------------------
      1        6           0.004265000    0.003997193    0.026159578
      2        8          -0.003447411   -0.002092456    0.007093352
      3        1          -0.003877294    0.000143263   -0.001855610
      4        1           0.002727884   -0.003628700   -0.010188559
      5        1          -0.001640144   -0.000880373   -0.004805797
      6        6          -0.018233820   -0.000769216    0.029056425
      7        8           0.023945515    0.001797605   -0.025208857
      8        6          -0.012186720    0.001766323   -0.014858930
      9        6           0.009342818   -0.012104687    0.003660082
     10        6           0.015987660   -0.014925196   -0.008212512
     11        6           0.011854967    0.014688927   -0.008628270
     12        1          -0.001310518   -0.002750662    0.010019117
     13        1           0.002046067    0.001982716    0.008230983
     14        8          -0.005445259    0.000958578   -0.005818220
     15        1          -0.004111866    0.000076804    0.001794004
     16        1           0.005369428    0.008628559    0.001662681
     17        8          -0.008928783   -0.004110227    0.003049258
     18        1           0.005043671   -0.004071382    0.004541150
     19        1          -0.005092909   -0.006391124   -0.005987862
     20        8           0.004664127    0.013186308   -0.003731415
     21        1          -0.003927586    0.003679088   -0.006177351
     22        1          -0.004000049   -0.000366620   -0.000181078
     23        8          -0.018051097    0.004692092   -0.001981355
     24        1           0.005006320   -0.003506812    0.002369184
 -------------------------------------------------------------------
 Cartesian Forces:  Max     0.029056425 RMS     0.009335648

 GradGradGradGradGradGradGradGradGradGradGradGradGradGradGradGradGradGrad
 Berny optimization.
 Internal  Forces:  Max     0.037565333 RMS     0.008497200
 Search for a local minimum.
 Step number   1 out of a maximum of  125
 All quantities printed in internal units (Hartrees-Bohrs-Radians)
 Mixed Optimization -- RFO/linear search
 Second derivative matrix not updated -- first step.
 ITU=  0
     Eigenvalues ---    0.00235   0.00287   0.00383   0.00400   0.00474
     Eigenvalues ---    0.00546   0.01330   0.01367   0.01374   0.01398
     Eigenvalues ---    0.01513   0.03721   0.04319   0.04408   0.04671
     Eigenvalues ---    0.05219   0.05249   0.05269   0.05567   0.06358
     Eigenvalues ---    0.07288   0.07362   0.07684   0.08477   0.11472
     Eigenvalues ---    0.11550   0.13692   0.13970   0.15909   0.16000
     Eigenvalues ---    0.16000   0.16000   0.16000   0.16000   0.17760
     Eigenvalues ---    0.18266   0.19154   0.19831   0.20268   0.22028
     Eigenvalues ---    0.22170   0.24991   0.25000   0.28507   0.28855
     Eigenvalues ---    0.29519   0.29643   0.30691   0.33939   0.34161
     Eigenvalues ---    0.34212   0.34235   0.34424   0.34470   0.34557
     Eigenvalues ---    0.41374   0.41777   0.41860   0.42126   0.43452
     Eigenvalues ---    0.52821   0.52872   0.52885   0.52899   0.52984
     Eigenvalues ---    0.90276
 RFO step:  Lambda=-3.51314352D-02 EMin= 2.34970769D-03
 Linear search not attempted -- first point.
 Maximum step size (   0.300) exceeded in Quadratic search.
    -- Step size scaled by   0.899
 Iteration  1 RMS(Cart)=  0.21311321 RMS(Int)=  0.00924108
 Iteration  2 RMS(Cart)=  0.02064147 RMS(Int)=  0.00072174
 Iteration  3 RMS(Cart)=  0.00025259 RMS(Int)=  0.00071679
 Iteration  4 RMS(Cart)=  0.00000011 RMS(Int)=  0.00071679
 Variable       Old X    -DE/DX   Delta X   Delta X   Delta X     New X
                                 (Linear)    (Quad)   (Total)
    R1        2.67116   0.00524   0.00000   0.01002   0.01002   2.68118
    R2        2.06543   0.00752   0.00000   0.01779   0.01779   2.08322
    R3        2.06400   0.00002   0.00000   0.00005   0.00005   2.06405
    R4        2.86607   0.00387   0.00000   0.01016   0.01016   2.87623
    R5        1.83773  -0.00426   0.00000  -0.00678  -0.00678   1.83095
    R6        2.32806  -0.03444   0.00000  -0.03300  -0.03300   2.29506
    R7        2.88681   0.02055   0.00000   0.05570   0.05570   2.94251
    R8        2.90306   0.01367   0.00000   0.03794   0.03794   2.94100
    R9        2.06974   0.00331   0.00000   0.00789   0.00789   2.07763
   R10        2.68763   0.00669   0.00000   0.01318   0.01318   2.70081
   R11        2.91044   0.00215   0.00000   0.00603   0.00603   2.91647
   R12        2.07433   0.00101   0.00000   0.00242   0.00242   2.07675
   R13        2.69207   0.01106   0.00000   0.02194   0.02194   2.71401
   R14        2.88932   0.00020   0.00000   0.00055   0.00055   2.88987
   R15        2.07060   0.00189   0.00000   0.00450   0.00450   2.07510
   R16        2.69728   0.00379   0.00000   0.00759   0.00759   2.70487
   R17        2.06935   0.00366   0.00000   0.00872   0.00872   2.07807
   R18        2.06621   0.00454   0.00000   0.01076   0.01076   2.07696
   R19        2.69101   0.00558   0.00000   0.01105   0.01105   2.70206
   R20        1.83748  -0.00448   0.00000  -0.00713  -0.00713   1.83034
   R21        1.83821  -0.00733   0.00000  -0.01170  -0.01170   1.82652
   R22        1.83668  -0.00711   0.00000  -0.01131  -0.01131   1.82537
   R23        1.83761  -0.00603   0.00000  -0.00961  -0.00961   1.82800
    A1        1.89497   0.00727   0.00000   0.03791   0.03748   1.93245
    A2        1.89387   0.00764   0.00000   0.04163   0.04127   1.93515
    A3        1.92697  -0.00921   0.00000  -0.02948  -0.02932   1.89765
    A4        1.92656  -0.00205   0.00000  -0.01432  -0.01539   1.91117
    A5        1.91043  -0.00201   0.00000  -0.01934  -0.01928   1.89115
    A6        1.91099  -0.00158   0.00000  -0.01578  -0.01569   1.89530
    A7        1.87619  -0.00111   0.00000  -0.00510  -0.00510   1.87109
    A8        2.11798  -0.01297   0.00000  -0.04113  -0.04135   2.07662
    A9        2.04303   0.03757   0.00000   0.11812   0.11791   2.16094
   A10        2.12188  -0.02464   0.00000  -0.07791  -0.07810   2.04378
   A11        2.01561   0.02997   0.00000   0.11692   0.11787   2.13349
   A12        1.86411  -0.00686   0.00000  -0.03526  -0.03429   1.82982
   A13        1.89282  -0.02095   0.00000  -0.07975  -0.08109   1.81173
   A14        1.92887  -0.01271   0.00000  -0.05459  -0.05367   1.87520
   A15        1.88958   0.00003   0.00000   0.00951   0.01088   1.90046
   A16        1.86730   0.00921   0.00000   0.03821   0.03691   1.90421
   A17        2.01558   0.00189   0.00000  -0.01236  -0.01334   2.00223
   A18        1.85915   0.00124   0.00000   0.03136   0.03062   1.88977
   A19        1.92822   0.00382   0.00000   0.00381   0.00125   1.92946
   A20        1.87740  -0.00185   0.00000  -0.01425  -0.01314   1.86426
   A21        1.91801  -0.01167   0.00000  -0.06982  -0.07022   1.84779
   A22        1.85723   0.00753   0.00000   0.07276   0.07198   1.92921
   A23        1.95210  -0.00771   0.00000  -0.01959  -0.02067   1.93143
   A24        1.93255   0.00143   0.00000  -0.01813  -0.01868   1.91388
   A25        1.91878  -0.00021   0.00000   0.01304   0.01273   1.93151
   A26        1.88432  -0.00095   0.00000  -0.01511  -0.01536   1.86896
   A27        1.78133   0.01269   0.00000   0.07634   0.07638   1.85771
   A28        1.99016  -0.00495   0.00000  -0.03142  -0.03131   1.95885
   A29        1.93950  -0.00563   0.00000  -0.04165  -0.04159   1.89791
   A30        1.95260  -0.00062   0.00000  -0.01394  -0.01387   1.93873
   A31        1.89918  -0.01164   0.00000  -0.03737  -0.03715   1.86203
   A32        1.91100   0.00010   0.00000  -0.00308  -0.00506   1.90594
   A33        1.88009   0.01059   0.00000   0.05645   0.05545   1.93554
   A34        1.87901   0.00802   0.00000   0.04503   0.04445   1.92346
   A35        1.86806   0.00045   0.00000   0.00207   0.00207   1.87013
   A36        1.88091   0.00350   0.00000   0.01613   0.01613   1.89704
   A37        1.88426   0.00244   0.00000   0.01124   0.01124   1.89550
   A38        1.88331   0.00456   0.00000   0.02101   0.02101   1.90432
    D1        1.04720   0.00331   0.00000   0.01704   0.01787   1.06507
    D2       -1.04720  -0.00289   0.00000  -0.01193  -0.01275  -1.05995
    D3        3.14159  -0.00018   0.00000  -0.00079  -0.00080   3.14080
    D4       -0.02957   0.00125   0.00000   0.02514   0.02493  -0.00464
    D5        3.13798   0.00315   0.00000   0.06597   0.06612  -3.07909
    D6        2.05550   0.00327   0.00000   0.04156   0.04132   2.09682
    D7       -1.06014   0.00517   0.00000   0.08240   0.08252  -0.97762
    D8       -2.11363  -0.00150   0.00000   0.00190   0.00182  -2.11181
    D9        1.05392   0.00039   0.00000   0.04274   0.04301   1.09693
   D10       -0.02602  -0.00349   0.00000  -0.05084  -0.04958  -0.07560
   D11       -2.17862  -0.00196   0.00000  -0.03183  -0.03075  -2.20937
   D12        2.09755   0.00107   0.00000  -0.01931  -0.02109   2.07646
   D13        3.14159  -0.00178   0.00000  -0.01051  -0.00962   3.13197
   D14        0.98899  -0.00025   0.00000   0.00851   0.00921   0.99820
   D15       -1.01803   0.00278   0.00000   0.02103   0.01887  -0.99915
   D16        3.12086  -0.00056   0.00000   0.00507   0.00624   3.12709
   D17        1.03783  -0.00024   0.00000   0.00821   0.00936   1.04719
   D18       -0.97232  -0.01174   0.00000  -0.09688  -0.09619  -1.06851
   D19       -1.04426   0.00220   0.00000   0.00059   0.00064  -1.04363
   D20       -3.12730   0.00251   0.00000   0.00374   0.00376  -3.12354
   D21        1.14574  -0.00898   0.00000  -0.10136  -0.10179   1.04395
   D22        0.99555   0.00620   0.00000   0.02169   0.02097   1.01652
   D23       -1.08748   0.00652   0.00000   0.02483   0.02409  -1.06339
   D24       -3.09763  -0.00498   0.00000  -0.08027  -0.08146   3.10410
   D25        2.00493  -0.01369   0.00000  -0.07754  -0.07759   1.92734
   D26       -2.07914   0.00983   0.00000   0.02163   0.02113  -2.05801
   D27        0.00000  -0.00011   0.00000  -0.01680  -0.01625  -0.01625
   D28       -3.12566  -0.00829   0.00000  -0.10413  -0.10329   3.05424
   D29        1.05505  -0.00287   0.00000  -0.05923  -0.05875   0.99630
   D30       -1.15972   0.00267   0.00000  -0.01476  -0.01422  -1.17394
   D31       -1.05269  -0.00687   0.00000  -0.08219  -0.08213  -1.13483
   D32        3.12801  -0.00145   0.00000  -0.03729  -0.03760   3.09042
   D33        0.91324   0.00409   0.00000   0.00718   0.00693   0.92018
   D34        0.96229  -0.00508   0.00000  -0.04032  -0.04055   0.92173
   D35       -1.14019   0.00035   0.00000   0.00457   0.00398  -1.13621
   D36        2.92823   0.00589   0.00000   0.04904   0.04851   2.97674
   D37        2.01135   0.00593   0.00000   0.08975   0.08998   2.10134
   D38       -2.02772   0.00237   0.00000   0.02294   0.02423  -2.00349
   D39        0.00000  -0.00160   0.00000   0.01070   0.00918   0.00918
   D40        1.09888   0.00050   0.00000   0.01815   0.01809   1.11697
   D41       -1.04308   0.00490   0.00000   0.06235   0.06214  -0.98094
   D42       -3.11698   0.00286   0.00000   0.03924   0.03933  -3.07765
   D43       -3.05394  -0.00324   0.00000  -0.02714  -0.02709  -3.08103
   D44        1.08729   0.00116   0.00000   0.01706   0.01696   1.10425
   D45       -0.98661  -0.00088   0.00000  -0.00606  -0.00584  -0.99246
   D46       -0.95145  -0.00293   0.00000  -0.03126  -0.03125  -0.98270
   D47       -3.09340   0.00146   0.00000   0.01295   0.01280  -3.08061
   D48        1.11588  -0.00057   0.00000  -0.01017  -0.01001   1.10587
   D49        2.18207   0.00043   0.00000  -0.01393  -0.01460   2.16747
   D50       -2.02702  -0.00181   0.00000   0.00988   0.01092  -2.01610
   D51        0.00000   0.00243   0.00000   0.02351   0.02314   0.02314
   D52       -3.13543   0.00143   0.00000   0.00771   0.00793  -3.12750
   D53       -1.03109  -0.00581   0.00000  -0.03073  -0.03235  -1.06344
   D54        1.02827   0.00418   0.00000   0.01950   0.02090   1.04917
         Item               Value     Threshold  Converged?
 Maximum Force            0.037565     0.000450     NO 
 RMS     Force            0.008497     0.000300     NO 
 Maximum Displacement     0.812648     0.001800     NO 
 RMS     Displacement     0.222623     0.001200     NO 
 Predicted change in Energy=-2.066722D-02
 GradGradGradGradGradGradGradGradGradGradGradGradGradGradGradGradGradGrad

                          Input orientation:                          
 ---------------------------------------------------------------------
 Center     Atomic      Atomic             Coordinates (Angstroms)
 Number     Number       Type             X           Y           Z
 ---------------------------------------------------------------------
      1          6           0       -0.037693   -0.023414    0.276611
      2          8           0       -0.333077   -0.052889    1.664028
      3          1           0        0.511738   -0.101231    2.135951
      4          1           0        0.495135   -0.939058   -0.028284
      5          1           0        0.566987    0.850949    0.025901
      6          6           0       -1.344666    0.051607   -0.499782
      7          8           0       -2.392989    0.070137    0.113136
      8          6           0       -1.432209    0.020348   -2.054113
      9          6           0       -0.164616    0.007304   -2.956959
     10          6           0       -0.452139   -0.044285   -4.472394
     11          6           0        0.846156    0.071224   -5.272206
     12          1           0        1.474877   -0.804105   -5.053630
     13          1           0        1.394518    0.985743   -5.005875
     14          8           0        0.476360    0.101557   -6.653094
     15          1           0        1.295269    0.161702   -7.166818
     16          1           0       -2.017824    0.911694   -2.321165
     17          8           0       -2.207755   -1.148342   -2.328553
     18          1           0       -3.069506   -0.875008   -2.670452
     19          1           0        0.422302   -0.889496   -2.714038
     20          8           0        0.617051    1.193477   -2.745670
     21          1           0        1.496194    0.933118   -2.441749
     22          1           0       -1.083687    0.807493   -4.757753
     23          8           0       -1.039618   -1.298803   -4.832716
     24          1           0       -1.881002   -1.137131   -5.281796
 ---------------------------------------------------------------------
                    Distance matrix (angstroms):
                    1          2          3          4          5
     1  C    0.000000
     2  O    1.418820   0.000000
     3  H    1.940380   0.968897   0.000000
     4  H    1.102393   2.082103   2.320807   0.000000
     5  H    1.092247   2.076175   2.315602   1.792268   0.000000
     6  C    1.522035   2.390880   3.227488   2.142100   2.137687
     7  O    2.362815   2.581403   3.543810   3.062635   3.062473
     8  C    2.716406   3.877889   4.620643   2.956196   3.002189
     9  C    3.236206   4.624449   5.138771   3.147699   3.185033
    10  C    4.767100   6.137583   6.678512   4.631205   4.698374
    11  C    5.619564   7.036855   7.417706   5.351878   5.362447
    12  H    5.595428   6.997139   7.287780   5.121739   5.418958
    13  H    5.565454   6.967852   7.277808   5.412039   5.101151
    14  O    6.949869   8.357845   8.791456   6.706068   6.721516
    15  H    7.564105   8.982283   9.339409   7.267087   7.262276
    16  H    3.397615   4.432895   5.224039   3.872667   3.491942
    17  O    3.572326   4.544793   5.331405   3.555369   4.152085
    18  H    4.313036   5.191497   6.043637   4.437546   4.844928
    19  H    3.147327   4.520837   4.914443   2.687198   3.249206
    20  O    3.323205   4.679916   5.051493   3.456408   2.793105
    21  H    3.264543   4.601723   4.795244   3.214339   2.638081
    22  H    5.208582   6.522495   7.134025   5.283086   5.060628
    23  O    5.360568   6.652758   7.239005   5.056426   5.550564
    24  H    5.961043   7.198342   7.862649   5.769284   6.173877
                    6          7          8          9         10
     6  C    0.000000
     7  O    1.214493   0.000000
     8  C    1.557108   2.371190   0.000000
     9  C    2.726206   3.794085   1.556308   0.000000
    10  C    4.072769   4.980670   2.610134   1.543332   0.000000
    11  C    5.251296   6.284422   3.943305   2.527075   1.529252
    12  H    5.423984   6.513076   4.257696   2.782508   2.151408
    13  H    5.355429   6.433336   4.199437   2.754324   2.180758
    14  O    6.417311   7.349559   4.979946   3.752485   2.374623
    15  H    7.171523   8.161455   5.796453   4.458476   3.218040
    16  H    2.123754   2.602842   1.099436   2.157901   2.827198
    17  O    2.351426   2.735114   1.429205   2.429985   2.982814
    18  H    2.923268   3.016510   1.965268   3.049417   3.284464
    19  H    2.985092   4.103616   2.168531   1.098969   2.137954
    20  O    3.193151   4.300582   2.460477   1.436194   2.378403
    21  H    3.552293   4.732644   3.091756   1.969991   2.979068
    22  H    4.332412   5.097403   2.837382   2.174363   1.098093
    23  O    4.548733   5.307264   3.100794   2.447448   1.431355
    24  H    4.956653   5.552018   3.458195   3.108147   1.972585
                   11         12         13         14         15
    11  C    0.000000
    12  H    1.099667   0.000000
    13  H    1.099080   1.792288   0.000000
    14  O    1.429868   2.091781   2.082818   0.000000
    15  H    1.949216   2.330366   2.314858   0.968577   0.000000
    16  H    4.197309   4.754923   4.342491   5.063880   5.917721
    17  O    4.413479   4.594162   4.969783   5.241028   6.115242
    18  H    4.795506   5.131859   5.370671   5.421096   6.351640
    19  H    2.765295   2.566885   3.116768   4.062176   4.657718
    20  O    2.774044   3.170628   2.399195   4.059562   4.590325
    21  H    3.029339   3.136929   2.566681   4.412141   4.791840
    22  H    2.128626   3.038264   2.496966   2.554293   3.446748
    23  O    2.371975   2.572200   3.342776   2.751904   3.610097
    24  H    2.982885   3.380073   3.913024   2.995324   3.915223
                   16         17         18         19         20
    16  H    0.000000
    17  O    2.068786   0.000000
    18  H    2.102460   0.966551   0.000000
    19  H    3.058243   2.670730   3.492110   0.000000
    20  O    2.683687   3.692916   4.227882   2.092296   0.000000
    21  H    3.516152   4.250239   4.916019   2.132911   0.965944
    22  H    2.611595   3.315091   3.336332   3.053612   2.662700
    23  O    3.485838   2.767311   2.995902   2.606442   3.648529
    24  H    3.603017   2.971285   2.881035   3.458311   4.254872
                   21         22         23         24
    21  H    0.000000
    22  H    3.469214   0.000000
    23  O    4.138664   2.108090   0.000000
    24  H    4.874142   2.166079   0.967335   0.000000
 Stoichiometry    C6H12O6
 Framework group  C1[X(C6H12O6)]
 Deg. of freedom    66
 Full point group                 C1      NOp   1
 Largest Abelian subgroup         C1      NOp   1
 Largest concise Abelian subgroup C1      NOp   1
                         Standard orientation:                         
 ---------------------------------------------------------------------
 Center     Atomic      Atomic             Coordinates (Angstroms)
 Number     Number       Type             X           Y           Z
 ---------------------------------------------------------------------
      1          6           0        2.666150   -0.957866    0.415819
      2          8           0        4.083572   -0.904464    0.449180
      3          1           0        4.390819   -1.715196    0.881700
      4          1           0        2.253332   -1.001840    1.437053
      5          1           0        2.322598   -1.824073   -0.153972
      6          6           0        2.145322    0.303721   -0.257774
      7          8           0        2.941203    1.134498   -0.646844
      8          6           0        0.633467    0.644840   -0.407826
      9          6           0       -0.487666   -0.337633    0.039280
     10          6           0       -1.924765    0.184497   -0.170482
     11          6           0       -2.948201   -0.895790    0.181899
     12          1           0       -2.863609   -1.126476    1.253765
     13          1           0       -2.772605   -1.811557   -0.399922
     14          8           0       -4.236573   -0.356037   -0.123530
     15          1           0       -4.891397   -1.030629    0.109433
     16          1           0        0.493550    0.838083   -1.481064
     17          8           0        0.487625    1.871372    0.311184
     18          1           0        0.314956    2.582164   -0.320623
     19          1           0       -0.371793   -0.525878    1.115788
     20          8           0       -0.404728   -1.566806   -0.698899
     21          1           0       -0.272373   -2.292472   -0.075249
     22          1           0       -2.074851    0.438300   -1.228248
     23          8           0       -2.191076    1.292655    0.695450
     24          1           0       -2.474655    2.049210    0.163523
 ---------------------------------------------------------------------
 Rotational constants (GHZ):      1.9506167      0.4226327      0.3688783
 Standard basis: 6-31G(d) (6D, 7F)
 There are   204 symmetry adapted basis functions of A   symmetry.
 Integral buffers will be    131072 words long.
 Raffenetti 2 integral format.
 Two-electron integral symmetry is turned on.
   204 basis functions,   384 primitive gaussians,   204 cartesian basis functions
    48 alpha electrons       48 beta electrons
       nuclear repulsion energy       771.1263010355 Hartrees.
 NAtoms=   24 NActive=   24 NUniq=   24 SFac= 1.00D+00 NAtFMM=   50 NAOKFM=F Big=F
 One-electron integrals computed using PRISM.
 NBasis=   204 RedAO= T  NBF=   204
 NBsUse=   204 1.00D-06 NBFU=   204
 Initial guess read from the read-write file.
 B after Tr=     0.000000    0.000000    0.000000
         Rot=    1.000000    0.000000    0.000000    0.000000 Ang=   0.00 deg.
 Initial guess orbital symmetries:
       Occupied  (A) (A) (A) (A) (A) (A) (A) (A) (A) (A) (A) (A)
                 (A) (A) (A) (A) (A) (A) (A) (A) (A) (A) (A) (A)
                 (A) (A) (A) (A) (A) (A) (A) (A) (A) (A) (A) (A)
                 (A) (A) (A) (A) (A) (A) (A) (A) (A) (A) (A) (A)
       Virtual   (A) (A) (A) (A) (A) (A) (A) (A) (A) (A) (A) (A)
                 (A) (A) (A) (A) (A) (A) (A) (A) (A) (A) (A) (A)
                 (A) (A) (A) (A) (A) (A) (A) (A) (A) (A) (A) (A)
                 (A) (A) (A) (A) (A) (A) (A) (A) (A) (A) (A) (A)
                 (A) (A) (A) (A) (A) (A) (A) (A) (A) (A) (A) (A)
                 (A) (A) (A) (A) (A) (A) (A) (A) (A) (A) (A) (A)
                 (A) (A) (A) (A) (A) (A) (A) (A) (A) (A) (A) (A)
                 (A) (A) (A) (A) (A) (A) (A) (A) (A) (A) (A) (A)
                 (A) (A) (A) (A) (A) (A) (A) (A) (A) (A) (A) (A)
                 (A) (A) (A) (A) (A) (A) (A) (A) (A) (A) (A) (A)
                 (A) (A) (A) (A) (A) (A) (A) (A) (A) (A) (A) (A)
                 (A) (A) (A) (A) (A) (A) (A) (A) (A) (A) (A) (A)
                 (A) (A) (A) (A) (A) (A) (A) (A) (A) (A) (A) (A)
 Harris functional with IExCor=  402 diagonalized for initial guess.
 ExpMin= 1.61D-01 ExpMax= 5.48D+03 ExpMxC= 8.25D+02 IAcc=1 IRadAn=         1 AccDes= 0.00D+00
 HarFok:  IExCor=  402 AccDes= 0.00D+00 IRadAn=         1 IDoV= 1
 ScaDFX=  1.000000  1.000000  1.000000  1.000000
 FoFCou: FMM=F IPFlag=           0 FMFlag=      100000 FMFlg1=           0
         NFxFlg=           0 DoJE=T BraDBF=F KetDBF=T FulRan=T
         Omega=  0.000000  0.000000  1.000000  0.000000  0.000000 ICntrl=     500 IOpCl=  0
         NMat0=    1 NMatS0=    1 NMatT0=    0 NMatD0=    1 NMtDS0=    0 NMtDT0=    0
         I1Cent=           4 NGrid=           0.
 Petite list used in FoFCou.
 Requested convergence on RMS density matrix=1.00D-08 within 128 cycles.
 Requested convergence on MAX density matrix=1.00D-06.
 Requested convergence on             energy=1.00D-06.
 No special actions if energy rises.
 Keep R1 ints in memory in canonical form, NReq=223281311.
 Integral accuracy reduced to 1.0D-05 until final iterations.
 Initial convergence to 1.0D-05 achieved.  Increase integral accuracy.
 SCF Done:  E(RB3LYP) =  -687.092752223     A.U. after   15 cycles
             Convg  =    0.3778D-08             -V/T =  2.0087
 Calling FoFJK, ICntrl=      2127 FMM=F ISym2X=0 I1Cent= 0 IOpClX= 0 NMat=1 NMatS=1 NMatT=0.
 ***** Axes restored to original set *****
 -------------------------------------------------------------------
 Center     Atomic                   Forces (Hartrees/Bohr)
 Number     Number              X              Y              Z
 -------------------------------------------------------------------
      1        6          -0.002124172   -0.002930902    0.007150409
      2        8          -0.000475246    0.000011088   -0.004304794
      3        1           0.000381560    0.000029563   -0.000513299
      4        1           0.002437846    0.001179777   -0.004136886
      5        1           0.005175274    0.002768705   -0.006130257
      6        6          -0.004976451   -0.000423750    0.010009550
      7        8           0.002759394    0.003126178   -0.007285348
      8        6          -0.005648513    0.000790050   -0.009939720
      9        6           0.002299402   -0.005191367    0.004411612
     10        6           0.000369089   -0.009102917   -0.003846524
     11        6          -0.000277494    0.005327289   -0.007576460
     12        1           0.000570701   -0.001369938    0.001183533
     13        1          -0.001228666   -0.001773280    0.001769444
     14        8           0.000702773   -0.000126859    0.002540724
     15        1          -0.000408437   -0.000025970   -0.000548099
     16        1           0.003174621    0.002821616    0.001481737
     17        8           0.002082645   -0.001541804   -0.001378443
     18        1           0.000322394   -0.000172928    0.002554503
     19        1          -0.000708383   -0.000895282    0.000390906
     20        8          -0.004132334    0.002739876    0.011515265
     21        1           0.000711384    0.000023743    0.000260874
     22        1          -0.002332036   -0.000225283    0.000877776
     23        8          -0.001091538    0.004610084    0.001575460
     24        1           0.002416187    0.000352312   -0.000061963
 -------------------------------------------------------------------
 Cartesian Forces:  Max     0.011515265 RMS     0.003713443

 GradGradGradGradGradGradGradGradGradGradGradGradGradGradGradGradGradGrad
 Berny optimization.
 Using GEDIIS/GDIIS optimizer.
 Internal  Forces:  Max     0.019160276 RMS     0.004287837
 Search for a local minimum.
 Step number   2 out of a maximum of  125
 All quantities printed in internal units (Hartrees-Bohrs-Radians)
 Mixed Optimization -- RFO/linear search
 Update second derivatives using D2CorX and points    1    2
 DE= -9.02D-03 DEPred=-2.07D-02 R= 4.37D-01
 Trust test= 4.37D-01 RLast= 4.35D-01 DXMaxT set to 3.00D-01
 ITU=  0  0
 Use linear search instead of GDIIS.
     Eigenvalues ---    0.00236   0.00292   0.00383   0.00401   0.00489
     Eigenvalues ---    0.00560   0.01329   0.01374   0.01379   0.01396
     Eigenvalues ---    0.01513   0.03754   0.04036   0.04591   0.04781
     Eigenvalues ---    0.04901   0.05221   0.05487   0.05935   0.06541
     Eigenvalues ---    0.07011   0.07481   0.07674   0.09102   0.10821
     Eigenvalues ---    0.11129   0.13520   0.13849   0.15922   0.16000
     Eigenvalues ---    0.16000   0.16000   0.16007   0.16091   0.17026
     Eigenvalues ---    0.19112   0.19601   0.19746   0.21666   0.22070
     Eigenvalues ---    0.22393   0.24641   0.28223   0.28497   0.29343
     Eigenvalues ---    0.29516   0.30676   0.33933   0.34061   0.34167
     Eigenvalues ---    0.34185   0.34245   0.34385   0.34454   0.39375
     Eigenvalues ---    0.41528   0.41751   0.42067   0.42641   0.45293
     Eigenvalues ---    0.52675   0.52851   0.52881   0.52910   0.53073
     Eigenvalues ---    0.88418
 RFO step:  Lambda=-6.63924055D-03 EMin= 2.36099027D-03
 Quartic linear search produced a step of -0.27881.
 Iteration  1 RMS(Cart)=  0.15221394 RMS(Int)=  0.00595939
 Iteration  2 RMS(Cart)=  0.01336255 RMS(Int)=  0.00061983
 Iteration  3 RMS(Cart)=  0.00005072 RMS(Int)=  0.00061922
 Iteration  4 RMS(Cart)=  0.00000002 RMS(Int)=  0.00061922
 Variable       Old X    -DE/DX   Delta X   Delta X   Delta X     New X
                                 (Linear)    (Quad)   (Total)
    R1        2.68118  -0.00469  -0.00279  -0.00220  -0.00499   2.67619
    R2        2.08322   0.00134  -0.00496   0.01222   0.00726   2.09048
    R3        2.06405   0.00649  -0.00001   0.01323   0.01322   2.07727
    R4        2.87623   0.00052  -0.00283   0.00656   0.00373   2.87996
    R5        1.83095   0.00008   0.00189  -0.00360  -0.00171   1.82924
    R6        2.29506  -0.00601   0.00920  -0.02309  -0.01389   2.28117
    R7        2.94251  -0.00495  -0.01553   0.01767   0.00214   2.94465
    R8        2.94100  -0.00972  -0.01058  -0.00364  -0.01421   2.92678
    R9        2.07763   0.00023  -0.00220   0.00469   0.00249   2.08012
   R10        2.70081  -0.00012  -0.00367   0.00692   0.00324   2.70405
   R11        2.91647   0.00432  -0.00168   0.01379   0.01211   2.92858
   R12        2.07675   0.00044  -0.00067   0.00220   0.00152   2.07827
   R13        2.71401   0.00216  -0.00612   0.01548   0.00937   2.72338
   R14        2.88987   0.00099  -0.00015   0.00265   0.00250   2.89236
   R15        2.07510   0.00094  -0.00125   0.00433   0.00307   2.07817
   R16        2.70487  -0.00527  -0.00212  -0.00490  -0.00701   2.69785
   R17        2.07807   0.00165  -0.00243   0.00804   0.00561   2.08368
   R18        2.07696  -0.00166  -0.00300   0.00235  -0.00064   2.07632
   R19        2.70206  -0.00201  -0.00308   0.00258  -0.00050   2.70156
   R20        1.83034  -0.00005   0.00199  -0.00397  -0.00198   1.82837
   R21        1.82652  -0.00124   0.00326  -0.00805  -0.00479   1.82172
   R22        1.82537   0.00072   0.00315  -0.00522  -0.00206   1.82331
   R23        1.82800  -0.00202   0.00268  -0.00795  -0.00527   1.82273
    A1        1.93245   0.00239  -0.01045   0.03584   0.02547   1.95792
    A2        1.93515   0.00289  -0.01151   0.04009   0.02865   1.96380
    A3        1.89765   0.00075   0.00817  -0.00856  -0.00041   1.89724
    A4        1.91117  -0.00290   0.00429  -0.03353  -0.02947   1.88170
    A5        1.89115  -0.00137   0.00538  -0.01757  -0.01237   1.87878
    A6        1.89530  -0.00190   0.00437  -0.01838  -0.01420   1.88110
    A7        1.87109  -0.00116   0.00142  -0.00749  -0.00606   1.86503
    A8        2.07662   0.01473   0.01153   0.02226   0.03109   2.10771
    A9        2.16094  -0.01810  -0.03287   0.01327  -0.02220   2.13874
   A10        2.04378   0.00344   0.02177  -0.02848  -0.00922   2.03456
   A11        2.13349  -0.01916  -0.03286  -0.01953  -0.05318   2.08031
   A12        1.82982   0.00343   0.00956  -0.02373  -0.01580   1.81402
   A13        1.81173   0.00725   0.02261  -0.01559   0.00792   1.81964
   A14        1.87520   0.00367   0.01496  -0.02232  -0.00955   1.86565
   A15        1.90046   0.00600  -0.00303   0.02984   0.02632   1.92678
   A16        1.90421  -0.00014  -0.01029   0.06229   0.05220   1.95641
   A17        2.00223   0.00147   0.00372   0.00297   0.00702   2.00925
   A18        1.88977   0.00311  -0.00854   0.02053   0.01194   1.90171
   A19        1.92946  -0.01320  -0.00035  -0.06018  -0.05975   1.86971
   A20        1.86426  -0.00188   0.00366   0.00846   0.01150   1.87576
   A21        1.84779   0.00990   0.01958   0.00516   0.02466   1.87245
   A22        1.92921   0.00103  -0.02007   0.02637   0.00611   1.93532
   A23        1.93143   0.00256   0.00576   0.00186   0.00779   1.93922
   A24        1.91388  -0.00148   0.00521  -0.01663  -0.01128   1.90260
   A25        1.93151  -0.00017  -0.00355   0.00690   0.00319   1.93470
   A26        1.86896  -0.00060   0.00428  -0.00832  -0.00388   1.86509
   A27        1.85771   0.00012  -0.02129   0.04085   0.01944   1.87715
   A28        1.95885  -0.00030   0.00873  -0.02343  -0.01474   1.94411
   A29        1.89791  -0.00058   0.01159  -0.02367  -0.01211   1.88580
   A30        1.93873  -0.00162   0.00387  -0.01552  -0.01169   1.92704
   A31        1.86203  -0.00023   0.01036  -0.02048  -0.01016   1.85187
   A32        1.90594   0.00022   0.00141  -0.00164   0.00004   1.90598
   A33        1.93554   0.00069  -0.01546   0.03103   0.01576   1.95129
   A34        1.92346   0.00147  -0.01239   0.02952   0.01720   1.94067
   A35        1.87013   0.00124  -0.00058   0.00636   0.00578   1.87591
   A36        1.89704  -0.00023  -0.00450   0.00694   0.00245   1.89948
   A37        1.89550   0.00042  -0.00313   0.00734   0.00421   1.89971
   A38        1.90432  -0.00120  -0.00586   0.00516  -0.00070   1.90363
    D1        1.06507  -0.00008  -0.00498   0.00545   0.00035   1.06542
    D2       -1.05995   0.00001   0.00356  -0.00378  -0.00009  -1.06004
    D3        3.14080   0.00013   0.00022   0.00001   0.00023   3.14102
    D4       -0.00464   0.00068  -0.00695   0.03421   0.02804   0.02340
    D5       -3.07909  -0.00078  -0.01843  -0.09323  -0.11243   3.09167
    D6        2.09682   0.00319  -0.01152   0.06212   0.05121   2.14803
    D7       -0.97762   0.00172  -0.02301  -0.06532  -0.08926  -1.06688
    D8       -2.11181  -0.00213  -0.00051   0.00166   0.00209  -2.10972
    D9        1.09693  -0.00360  -0.01199  -0.12577  -0.13838   0.95855
   D10       -0.07560  -0.00177   0.01382   0.01643   0.02937  -0.04623
   D11       -2.20937   0.00367   0.00857   0.08278   0.08985  -2.11952
   D12        2.07646  -0.00043   0.00588   0.02945   0.03514   2.11160
   D13        3.13197  -0.00363   0.00268  -0.11056  -0.10704   3.02493
   D14        0.99820   0.00181  -0.00257  -0.04421  -0.04656   0.95164
   D15       -0.99915  -0.00229  -0.00526  -0.09754  -0.10128  -1.10043
   D16        3.12709   0.00246  -0.00174   0.14980   0.14735  -3.00874
   D17        1.04719   0.00170  -0.00261   0.12256   0.11925   1.16644
   D18       -1.06851   0.00655   0.02682   0.11389   0.14019  -0.92832
   D19       -1.04363  -0.00365  -0.00018   0.08141   0.08143  -0.96220
   D20       -3.12354  -0.00441  -0.00105   0.05417   0.05333  -3.07020
   D21        1.04395   0.00043   0.02838   0.04550   0.07427   1.11823
   D22        1.01652   0.00144  -0.00585   0.15896   0.15341   1.16993
   D23       -1.06339   0.00068  -0.00672   0.13171   0.12531  -0.93808
   D24        3.10410   0.00553   0.02271   0.12304   0.14625  -3.03283
   D25        1.92734   0.00607   0.02163  -0.04157  -0.01985   1.90749
   D26       -2.05801  -0.00883  -0.00589  -0.05727  -0.06353  -2.12154
   D27       -0.01625  -0.00114   0.00453  -0.03231  -0.02750  -0.04375
   D28        3.05424  -0.00536   0.02880  -0.09075  -0.06225   2.99199
   D29        0.99630  -0.00525   0.01638  -0.07141  -0.05521   0.94108
   D30       -1.17394  -0.00372   0.00397  -0.03471  -0.03096  -1.20490
   D31       -1.13483  -0.00186   0.02290  -0.05707  -0.03425  -1.16908
   D32        3.09042  -0.00175   0.01048  -0.03774  -0.02721   3.06320
   D33        0.92018  -0.00022  -0.00193  -0.00103  -0.00296   0.91721
   D34        0.92173   0.00329   0.01131  -0.02014  -0.00865   0.91308
   D35       -1.13621   0.00340  -0.00111  -0.00080  -0.00161  -1.13782
   D36        2.97674   0.00493  -0.01353   0.03590   0.02264   2.99938
   D37        2.10134  -0.00144  -0.02509   0.00757  -0.01738   2.08396
   D38       -2.00349  -0.00117  -0.00676  -0.02193  -0.02920  -2.03269
   D39        0.00918   0.00256  -0.00256   0.00382   0.00164   0.01082
   D40        1.11697   0.00039  -0.00504   0.01503   0.01009   1.12705
   D41       -0.98094   0.00149  -0.01732   0.04187   0.02464  -0.95630
   D42       -3.07765   0.00077  -0.01097   0.02757   0.01664  -3.06101
   D43       -3.08103  -0.00032   0.00755  -0.00907  -0.00152  -3.08254
   D44        1.10425   0.00078  -0.00473   0.01776   0.01304   1.11729
   D45       -0.99246   0.00006   0.00163   0.00347   0.00504  -0.98742
   D46       -0.98270  -0.00091   0.00871  -0.01924  -0.01056  -0.99326
   D47       -3.08061   0.00018  -0.00357   0.00760   0.00400  -3.07661
   D48        1.10587  -0.00054   0.00279  -0.00669  -0.00400   1.10187
   D49        2.16747  -0.00107   0.00407   0.00324   0.00748   2.17495
   D50       -2.01610   0.00199  -0.00304   0.03426   0.03101  -1.98510
[...]
                   16         17         18         19         20
    16  H    0.000000
    17  O    2.067598   0.000000
    18  H    2.673167   0.980835   0.000000
    19  H    3.051410   2.770878   3.116084   0.000000
    20  O    2.522946   3.623944   4.195730   2.080345   0.000000
    21  H    3.350126   4.274730   4.911038   2.382215   0.976420
    22  H    3.434973   2.631345   3.394835   2.389453   3.352190
    23  O    4.074881   4.201011   4.966006   2.618771   2.647204
    24  H    4.607001   4.751669   5.592961   3.544357   3.411529
                   21         22         23         24
    21  H    0.000000
    22  H    3.361373   0.000000
    23  O    2.056738   2.085115   0.000000
    24  H    2.783868   2.444807   0.974577   0.000000
 Stoichiometry    C6H12O6
 Framework group  C1[X(C6H12O6)]
 Deg. of freedom    66
 Full point group                 C1      NOp   1
 Largest Abelian subgroup         C1      NOp   1
 Largest concise Abelian subgroup C1      NOp   1
                         Standard orientation:                         
 ---------------------------------------------------------------------
 Center     Atomic      Atomic             Coordinates (Angstroms)
 Number     Number       Type             X           Y           Z
 ---------------------------------------------------------------------
      1          6           0       -2.639686   -0.842042    0.464738
      2          8           0       -4.032765   -0.786353    0.260555
      3          1           0       -4.390434   -1.660953    0.473430
      4          1           0       -2.149065   -1.663857   -0.079041
      5          1           0       -2.366660   -0.983488    1.525104
      6          6           0       -2.009662    0.453847   -0.000404
      7          8           0       -2.642533    1.339233   -0.545272
      8          6           0       -0.503141    0.681961    0.240205
      9          6           0        0.366366   -0.354299   -0.499062
     10          6           0        1.857640    0.022492   -0.540596
     11          6           0        2.460357    0.340090    0.827158
     12          1           0        2.167051   -0.436732    1.546962
     13          1           0        2.105709    1.316580    1.180338
     14          8           0        3.879615    0.343451    0.629383
     15          1           0        4.311468    0.348237    1.495870
     16          1           0       -0.313362    0.567940    1.319968
     17          8           0       -0.168214    1.980482   -0.182902
     18          1           0       -0.999014    2.346210   -0.554455
     19          1           0        0.026610   -0.424332   -1.545502
     20          8           0        0.212909   -1.607442    0.155491
     21          1           0        0.954992   -2.144045   -0.183282
     22          1           0        1.995829    0.885041   -1.203150
     23          8           0        2.504569   -1.133424   -1.081964
     24          1           0        3.436978   -1.050476   -0.810793
 ---------------------------------------------------------------------
 Rotational constants (GHZ):      1.8676001      0.4571539      0.4055906

 **********************************************************************

            Population analysis using the SCF density.

 **********************************************************************

 Orbital symmetries:
       Occupied  (A) (A) (A) (A) (A) (A) (A) (A) (A) (A) (A) (A)
                 (A) (A) (A) (A) (A) (A) (A) (A) (A) (A) (A) (A)
                 (A) (A) (A) (A) (A) (A) (A) (A) (A) (A) (A) (A)
                 (A) (A) (A) (A) (A) (A) (A) (A) (A) (A) (A) (A)
       Virtual   (A) (A) (A) (A) (A) (A) (A) (A) (A) (A) (A) (A)
                 (A) (A) (A) (A) (A) (A) (A) (A) (A) (A) (A) (A)
                 (A) (A) (A) (A) (A) (A) (A) (A) (A) (A) (A) (A)
                 (A) (A) (A) (A) (A) (A) (A) (A) (A) (A) (A) (A)
                 (A) (A) (A) (A) (A) (A) (A) (A) (A) (A) (A) (A)
                 (A) (A) (A) (A) (A) (A) (A) (A) (A) (A) (A) (A)
                 (A) (A) (A) (A) (A) (A) (A) (A) (A) (A) (A) (A)
                 (A) (A) (A) (A) (A) (A) (A) (A) (A) (A) (A) (A)
                 (A) (A) (A) (A) (A) (A) (A) (A) (A) (A) (A) (A)
                 (A) (A) (A) (A) (A) (A) (A) (A) (A) (A) (A) (A)
                 (A) (A) (A) (A) (A) (A) (A) (A) (A) (A) (A) (A)
                 (A) (A) (A) (A) (A) (A) (A) (A) (A) (A) (A) (A)
                 (A) (A) (A) (A) (A) (A) (A) (A) (A) (A) (A) (A)
 The electronic state is 1-A.
 Alpha  occ. eigenvalues --  -19.16696 -19.16107 -19.15356 -19.15297 -19.15274
 Alpha  occ. eigenvalues --  -19.14572 -10.28684 -10.25069 -10.24740 -10.24707
 Alpha  occ. eigenvalues --  -10.24017 -10.23985  -1.07077  -1.05114  -1.03228
 Alpha  occ. eigenvalues --   -1.02815  -1.01432  -1.00709  -0.78370  -0.75207
 Alpha  occ. eigenvalues --   -0.70663  -0.65801  -0.58775  -0.56478  -0.54314
 Alpha  occ. eigenvalues --   -0.53343  -0.51849  -0.50482  -0.48797  -0.48050
 Alpha  occ. eigenvalues --   -0.47613  -0.45893  -0.44511  -0.42917  -0.42084
 Alpha  occ. eigenvalues --   -0.39777  -0.37647  -0.36972  -0.35980  -0.35435
 Alpha  occ. eigenvalues --   -0.34572  -0.33951  -0.29200  -0.28473  -0.28275
 Alpha  occ. eigenvalues --   -0.27834  -0.26752  -0.26567
 Alpha virt. eigenvalues --   -0.02774   0.04901   0.06180   0.08490   0.10036
 Alpha virt. eigenvalues --    0.11097   0.13200   0.13963   0.14910   0.15789
 Alpha virt. eigenvalues --    0.17415   0.17790   0.18114   0.19015   0.20128
 Alpha virt. eigenvalues --    0.20257   0.21612   0.22929   0.23597   0.27465
 Alpha virt. eigenvalues --    0.29227   0.31834   0.34073   0.38163   0.51955
 Alpha virt. eigenvalues --    0.52943   0.53688   0.54302   0.56345   0.56643
 Alpha virt. eigenvalues --    0.59599   0.60462   0.61555   0.64704   0.65800
 Alpha virt. eigenvalues --    0.68207   0.69976   0.70637   0.72265   0.74607
 Alpha virt. eigenvalues --    0.76624   0.77999   0.79491   0.79848   0.81085
 Alpha virt. eigenvalues --    0.81831   0.83202   0.84524   0.84904   0.85701
 Alpha virt. eigenvalues --    0.87550   0.88616   0.89734   0.90601   0.93912
 Alpha virt. eigenvalues --    0.94776   0.95385   0.96236   0.98598   1.00714
 Alpha virt. eigenvalues --    1.02343   1.03019   1.04065   1.06016   1.07197
 Alpha virt. eigenvalues --    1.09116   1.11529   1.13301   1.15552   1.16478
 Alpha virt. eigenvalues --    1.23003   1.25673   1.26565   1.29083   1.30283
 Alpha virt. eigenvalues --    1.32807   1.37197   1.37931   1.39900   1.41427
 Alpha virt. eigenvalues --    1.45297   1.48658   1.53831   1.55905   1.56898
 Alpha virt. eigenvalues --    1.62206   1.63316   1.63881   1.68189   1.70069
 Alpha virt. eigenvalues --    1.71806   1.72116   1.72593   1.77474   1.78117
 Alpha virt. eigenvalues --    1.78931   1.81865   1.82587   1.85567   1.87870
 Alpha virt. eigenvalues --    1.89031   1.91125   1.91864   1.92890   1.93478
 Alpha virt. eigenvalues --    1.98097   2.01841   2.03325   2.04619   2.07467
 Alpha virt. eigenvalues --    2.10254   2.13355   2.14753   2.15519   2.17432
 Alpha virt. eigenvalues --    2.18430   2.24024   2.25934   2.29082   2.31769
 Alpha virt. eigenvalues --    2.36477   2.37580   2.38896   2.42840   2.44497
 Alpha virt. eigenvalues --    2.46407   2.47637   2.48715   2.52392   2.53098
 Alpha virt. eigenvalues --    2.56063   2.57067   2.61561   2.65293   2.69874
 Alpha virt. eigenvalues --    2.74980   2.78653   2.86440   2.88907   2.90640
 Alpha virt. eigenvalues --    2.95522   2.97280   2.99997   3.04835   3.73592
 Alpha virt. eigenvalues --    3.79710   3.81788   3.84992   3.92436   4.05381
 Alpha virt. eigenvalues --    4.20484   4.26447   4.40355   4.48885   4.52882
 Alpha virt. eigenvalues --    4.66647
          Condensed to atoms (all electrons):
              1          2          3          4          5          6
     1  C    5.113599   0.233604  -0.022856   0.346139   0.352715   0.272468
     2  O    0.233604   8.224534   0.234752  -0.030192  -0.037904  -0.034572
     3  H   -0.022856   0.234752   0.389330  -0.005036  -0.002672   0.006269
     4  H    0.346139  -0.030192  -0.005036   0.560155  -0.046286  -0.025933
     5  H    0.352715  -0.037904  -0.002672  -0.046286   0.614595  -0.042226
     6  C    0.272468  -0.034572   0.006269  -0.025933  -0.042226   4.644075
     7  O   -0.078422   0.002723   0.000162   0.000314   0.000845   0.556824
     8  C   -0.113828   0.002031  -0.000182   0.001142   0.008289   0.305854
     9  C    0.001321  -0.000078   0.000000   0.001610  -0.001834  -0.014728
    10  C   -0.000082   0.000000   0.000000   0.000329  -0.000036   0.002277
    11  C   -0.000006   0.000000   0.000000   0.000002   0.000002   0.000024
    12  H    0.000014   0.000000   0.000000  -0.000009  -0.000001  -0.000068
    13  H   -0.000002   0.000000   0.000000  -0.000001   0.000000   0.000179
    14  O    0.000000   0.000000   0.000000   0.000000   0.000000   0.000000
    15  H    0.000000   0.000000   0.000000   0.000000   0.000000   0.000000
    16  H    0.002645  -0.000039   0.000003   0.000151   0.002198  -0.042242
    17  O    0.002377  -0.000008   0.000001  -0.000012   0.000009  -0.023114
    18  H    0.003351  -0.000031   0.000001  -0.000063  -0.000088  -0.008184
    19  H    0.001992  -0.000021   0.000002  -0.000673   0.000068  -0.007049
    20  O   -0.002918   0.000087   0.000004   0.012890   0.001236  -0.004368
    21  H    0.000023  -0.000002   0.000000  -0.000063  -0.000016  -0.000017
    22  H    0.000003   0.000000   0.000000  -0.000008   0.000000  -0.000062
    23  O    0.000001   0.000000   0.000000  -0.000003   0.000000  -0.000024
    24  H    0.000000   0.000000   0.000000   0.000000   0.000000   0.000003
              7          8          9         10         11         12
     1  C   -0.078422  -0.113828   0.001321  -0.000082  -0.000006   0.000014
     2  O    0.002723   0.002031  -0.000078   0.000000   0.000000   0.000000
     3  H    0.000162  -0.000182   0.000000   0.000000   0.000000   0.000000
     4  H    0.000314   0.001142   0.001610   0.000329   0.000002  -0.000009
     5  H    0.000845   0.008289  -0.001834  -0.000036   0.000002  -0.000001
     6  C    0.556824   0.305854  -0.014728   0.002277   0.000024  -0.000068
     7  O    8.001948  -0.070741  -0.001974  -0.000061   0.000000   0.000000
     8  C   -0.070741   5.062238   0.289882  -0.033446  -0.002087  -0.003053
     9  C   -0.001974   0.289882   5.011144   0.342813  -0.028592  -0.006132
    10  C   -0.000061  -0.033446   0.342813   4.878319   0.337510  -0.035597
    11  C    0.000000  -0.002087  -0.028592   0.337510   4.969209   0.345875
    12  H    0.000000  -0.003053  -0.006132  -0.035597   0.345875   0.628707
    13  H    0.000001   0.001445  -0.003505  -0.028725   0.350975  -0.045210
    14  O    0.000000   0.000030   0.002189  -0.046484   0.229845  -0.037214
    15  H    0.000000   0.000001  -0.000219   0.005779  -0.021667  -0.005177
    16  H    0.001081   0.352561  -0.067347  -0.010107   0.004047   0.002058
    17  O   -0.024618   0.266516  -0.051315  -0.003671  -0.003388   0.000259
    18  H    0.054463  -0.059250   0.004442  -0.000405   0.000040  -0.000004
    19  H    0.000819  -0.051260   0.350850  -0.050339   0.006203   0.000421
    20  O    0.000027  -0.030363   0.187699  -0.026309  -0.011163   0.012985
    21  H    0.000000   0.005582  -0.034449  -0.014412   0.000506   0.001559
    22  H    0.000001  -0.003115  -0.041013   0.354453  -0.049270   0.006979
    23  O    0.000000   0.002336  -0.047754   0.234155  -0.038705  -0.000859
    24  H    0.000000  -0.000163   0.006172  -0.036741  -0.014987  -0.000233
             13         14         15         16         17         18
     1  C   -0.000002   0.000000   0.000000   0.002645   0.002377   0.003351
     2  O    0.000000   0.000000   0.000000  -0.000039  -0.000008  -0.000031
     3  H    0.000000   0.000000   0.000000   0.000003   0.000001   0.000001
     4  H   -0.000001   0.000000   0.000000   0.000151  -0.000012  -0.000063
     5  H    0.000000   0.000000   0.000000   0.002198   0.000009  -0.000088
     6  C    0.000179   0.000000   0.000000  -0.042242  -0.023114  -0.008184
     7  O    0.000001   0.000000   0.000000   0.001081  -0.024618   0.054463
     8  C    0.001445   0.000030   0.000001   0.352561   0.266516  -0.059250
     9  C   -0.003505   0.002189  -0.000219  -0.067347  -0.051315   0.004442
    10  C   -0.028725  -0.046484   0.005779  -0.010107  -0.003671  -0.000405
    11  C    0.350975   0.229845  -0.021667   0.004047  -0.003388   0.000040
    12  H   -0.045210  -0.037214  -0.005177   0.002058   0.000259  -0.000004
    13  H    0.594760  -0.035645  -0.001279  -0.001363   0.005282  -0.000053
    14  O   -0.035645   8.264749   0.237445  -0.000019   0.000013   0.000000
    15  H   -0.001279   0.237445   0.381106   0.000008   0.000000   0.000000
    16  H   -0.001363  -0.000019   0.000008   0.630724  -0.041829   0.005673
    17  O    0.005282   0.000013   0.000000  -0.041829   8.282367   0.227190
    18  H   -0.000053   0.000000   0.000000   0.005673   0.227190   0.357012
    19  H   -0.000243  -0.000055   0.000006   0.007353   0.004830   0.000468
    20  O    0.000350   0.000025   0.000010   0.007584   0.001468  -0.000082
    21  H   -0.000006  -0.000085  -0.000003  -0.000231  -0.000124   0.000010
    22  H   -0.002641   0.000370  -0.000179   0.000641   0.009244  -0.000055
    23  O    0.003234  -0.011368   0.000460   0.000029   0.000057   0.000001
    24  H    0.001214   0.038283  -0.001689  -0.000002   0.000000   0.000000
             19         20         21         22         23         24
     1  C    0.001992  -0.002918   0.000023   0.000003   0.000001   0.000000
     2  O   -0.000021   0.000087  -0.000002   0.000000   0.000000   0.000000
     3  H    0.000002   0.000004   0.000000   0.000000   0.000000   0.000000
     4  H   -0.000673   0.012890  -0.000063  -0.000008  -0.000003   0.000000
     5  H    0.000068   0.001236  -0.000016   0.000000   0.000000   0.000000
     6  C   -0.007049  -0.004368  -0.000017  -0.000062  -0.000024   0.000003
     7  O    0.000819   0.000027   0.000000   0.000001   0.000000   0.000000
     8  C   -0.051260  -0.030363   0.005582  -0.003115   0.002336  -0.000163
     9  C    0.350850   0.187699  -0.034449  -0.041013  -0.047754   0.006172
    10  C   -0.050339  -0.026309  -0.014412   0.354453   0.234155  -0.036741
    11  C    0.006203  -0.011163   0.000506  -0.049270  -0.038705  -0.014987
    12  H    0.000421   0.012985   0.001559   0.006979  -0.000859  -0.000233
    13  H   -0.000243   0.000350  -0.000006  -0.002641   0.003234   0.001214
    14  O   -0.000055   0.000025  -0.000085   0.000370  -0.011368   0.038283
    15  H    0.000006   0.000010  -0.000003  -0.000179   0.000460  -0.001689
    16  H    0.007353   0.007584  -0.000231   0.000641   0.000029  -0.000002
    17  O    0.004830   0.001468  -0.000124   0.009244   0.000057   0.000000
    18  H    0.000468  -0.000082   0.000010  -0.000055   0.000001   0.000000
    19  H    0.640381  -0.038874  -0.000800  -0.001480   0.000102  -0.000409
    20  O   -0.038874   8.330755   0.226906   0.003360  -0.014805   0.000478
    21  H   -0.000800   0.226906   0.357709   0.001284   0.041826  -0.001534
    22  H   -0.001480   0.003360   0.001284   0.606812  -0.041528   0.000624
    23  O    0.000102  -0.014805   0.041826  -0.041528   8.307202   0.235404
    24  H   -0.000409   0.000478  -0.001534   0.000624   0.235404   0.354043
 Mulliken atomic charges:
              1
     1  C   -0.112136
     2  O   -0.594882
     3  H    0.400221
     4  H    0.185548
     5  H    0.151107
     6  C    0.414614
     7  O   -0.443393
     8  C    0.069581
     9  C    0.100815
    10  C    0.130780
    11  C   -0.074372
    12  H    0.134698
    13  H    0.161233
    14  O   -0.642080
    15  H    0.405397
    16  H    0.146423
    17  O   -0.651535
    18  H    0.415563
    19  H    0.137709
    20  O   -0.656982
    21  H    0.416336
    22  H    0.155580
    23  O   -0.669763
    24  H    0.419537
 Sum of Mulliken atomic charges =   0.00000
 Mulliken charges with hydrogens summed into heavy atoms:
              1
     1  C    0.224519
     2  O   -0.194661
     6  C    0.414614
     7  O   -0.443393
     8  C    0.216004
     9  C    0.238525
    10  C    0.286360
    11  C    0.221559
    14  O   -0.236683
    17  O   -0.235973
    20  O   -0.240645
    23  O   -0.250226
 Sum of Mulliken charges with hydrogens summed into heavy atoms =   0.00000
 Electronic spatial extent (au):  <R**2>=           2691.7482
 Charge=              0.0000 electrons
 Dipole moment (field-independent basis, Debye):
    X=              2.1627    Y=             -2.6097    Z=              2.8495  Tot=              4.4280
 Quadrupole moment (field-independent basis, Debye-Ang):
   XX=            -69.1002   YY=            -69.7030   ZZ=            -66.8157
   XY=              7.7529   XZ=              3.6510   YZ=             -0.4808
 Traceless Quadrupole moment (field-independent basis, Debye-Ang):
   XX=             -0.5605   YY=             -1.1634   ZZ=              1.7239
   XY=              7.7529   XZ=              3.6510   YZ=             -0.4808
 Octapole moment (field-independent basis, Debye-Ang**2):
  XXX=             59.7903  YYY=            -15.5433  ZZZ=              7.8079  XYY=            -15.0136
  XXY=            -47.8886  XXZ=             44.4704  XZZ=             10.9646  YZZ=              3.7927
  YYZ=             -0.0805  XYZ=              3.5262
 Hexadecapole moment (field-independent basis, Debye-Ang**3):
 XXXX=          -2279.0085 YYYY=           -483.1322 ZZZZ=           -225.1866 XXXY=            138.8991
 XXXZ=             66.5473 YYYX=              8.9116 YYYZ=            -10.0277 ZZZX=             34.7603
 ZZZY=             -4.1712 XXYY=           -414.6141 XXZZ=           -375.7256 YYZZ=           -125.5844
 XXYZ=             -6.5512 YYXZ=             -5.2633 ZZXY=             13.3235
 N-N= 7.864513930525D+02 E-N=-3.184499518784D+03  KE= 6.812440986488D+02

 Test job not archived.
 1\1\GINC-TERMINUS\FOpt\RB3LYP\6-31G(d)\C6H12O6\FRODOX\04-Jan-2018\0\\#
 B3LYP/6-31G* fopt test\\Sugars/R-R-R-Fructuose.xyz\\0,1\C,-0.108992937
 4,0.1839334773,0.1976516095\O,-0.5258945491,0.1158254476,1.5419042989\
 H,0.2682567066,0.0014370039,2.0844982775\H,0.5176789508,-0.6668345686,
 -0.1109905145\H,0.4877426087,1.0866222526,-0.0214080796\C,-1.323428675
 4,0.2084917579,-0.7063150755\O,-2.4610053177,0.0913970032,-0.289752667
 6\C,-1.1236245648,0.4110413831,-2.222424147\C,-0.3025907363,-0.7288111
 304,-2.8572730714\C,-0.3493808352,-0.7278910819,-4.3952609604\C,0.0232
 46784,0.6106794911,-5.0310783527\H,0.9405982537,0.9959986562,-4.564606
 9922\H,-0.7885177382,1.3357123275,-4.8917646222\O,0.2358115679,0.32951
 70975,-6.4200295009\H,0.6584648541,1.0985927702,-6.8289367868\H,-0.561
 1062529,1.3480003432,-2.3658988213\O,-2.3848914552,0.4961784371,-2.838
 3064522\H,-3.0293390378,0.3532050818,-2.1128524216\H,-0.7178665003,-1.
 6951248502,-2.5268825276\O,1.0456301529,-0.5962715145,-2.4247321357\H,
 1.5481413162,-1.1666061502,-3.0375910258\H,-1.3533331276,-1.0166286755
 ,-4.7280892915\O,0.6103045717,-1.7157217858,-4.7837604007\H,0.83390196
 12,-1.5001517731,-5.7075213386\\Version=EM64L-G09RevB.01\State=1-A\HF=
 -687.1366884\RMSD=4.911e-09\RMSF=4.465e-06\Dipole=1.5340653,0.5779484,
 -0.5895345\Quadrupole=-1.9663743,0.0380043,1.92837,2.2686749,3.7240694
 ,-4.3811454\PG=C01 [X(C6H12O6)]\\@


 WE TEND TO MEET ANY NEW SITUATION BY REORGANIZING. IT CAN BE A
 WONDERFUL METHOD FOR CREATING THE ILLUSION OF PROGRESS WHILE PRODUCING
 CONFUSION, INEFFICIENCY, AND DEMORALIZATION.
     -- PETRONIUS ARBITER, 210 B.C.
 Job cpu time:  0 days  1 hours  2 minutes 54.4 seconds.
 File lengths (MBytes):  RWF=     27 Int=      0 D2E=      0 Chk=      4 Scr=      1
 Normal termination of Gaussian 09 at Thu Jan  4 16:01:49 2018.
