 Entering Gaussian System, Link 0=g09
 Input=R-S-S-Fructuose.inp
 Output=R-S-S-Fructuose.log
 Initial command:
 /usr/local/g09/l1.exe /home/g09scr/Gau-5304.inp -scrdir=/home/g09scr/
 Entering Link 1 = /usr/local/g09/l1.exe PID=      5306.
  
 Copyright (c) 1988,1990,1992,1993,1995,1998,2003,2009,2010,
            Gaussian, Inc.  All Rights Reserved.
  
 This is part of the Gaussian(R) 09 program.  It is based on
 the Gaussian(R) 03 system (copyright 2003, Gaussian, Inc.),
 the Gaussian(R) 98 system (copyright 1998, Gaussian, Inc.),
 the Gaussian(R) 94 system (copyright 1995, Gaussian, Inc.),
 the Gaussian 92(TM) system (copyright 1992, Gaussian, Inc.),
 the Gaussian 90(TM) system (copyright 1990, Gaussian, Inc.),
 the Gaussian 88(TM) system (copyright 1988, Gaussian, Inc.),
 the Gaussian 86(TM) system (copyright 1986, Carnegie Mellon
 University), and the Gaussian 82(TM) system (copyright 1983,
 Carnegie Mellon University). Gaussian is a federally registered
 trademark of Gaussian, Inc.
  
 This software contains proprietary and confidential information,
 including trade secrets, belonging to Gaussian, Inc.
  
 This software is provided under written license and may be
 used, copied, transmitted, or stored only in accord with that
 written license.
  
 The following legend is applicable only to US Government
 contracts under FAR:
  
                    RESTRICTED RIGHTS LEGEND
  
 Use, reproduction and disclosure by the US Government is
 subject to restrictions as set forth in subparagraphs (a)
 and (c) of the Commercial Computer Software - Restricted
 Rights clause in FAR 52.227-19.
  
 Gaussian, Inc.
 340 Quinnipiac St., Bldg. 40, Wallingford CT 06492
  
  
 ---------------------------------------------------------------
 Warning -- This program may not be used in any manner that
 competes with the business of Gaussian, Inc. or will provide
 assistance to any competitor of Gaussian, Inc.  The licensee
 of this program is prohibited from giving any competitor of
 Gaussian, Inc. access to this program.  By using this program,
 the user acknowledges that Gaussian, Inc. is engaged in the
 business of creating and licensing software in the field of
 computational chemistry and represents and warrants to the
 licensee that it is not a competitor of Gaussian, Inc. and that
 it will not use this program in any manner prohibited above.
 ---------------------------------------------------------------
  

 Cite this work as:
 Gaussian 09, Revision B.01,
 M. J. Frisch, G. W. Trucks, H. B. Schlegel, G. E. Scuseria, 
 M. A. Robb, J. R. Cheeseman, G. Scalmani, V. Barone, B. Mennucci, 
 G. A. Petersson, H. Nakatsuji, M. Caricato, X. Li, H. P. Hratchian, 
 A. F. Izmaylov, J. Bloino, G. Zheng, J. L. Sonnenberg, M. Hada, 
 M. Ehara, K. Toyota, R. Fukuda, J. Hasegawa, M. Ishida, T. Nakajima, 
 Y. Honda, O. Kitao, H. Nakai, T. Vreven, J. A. Montgomery, Jr., 
 J. E. Peralta, F. Ogliaro, M. Bearpark, J. J. Heyd, E. Brothers, 
 K. N. Kudin, V. N. Staroverov, T. Keith, R. Kobayashi, J. Normand, 
 K. Raghavachari, A. Rendell, J. C. Burant, S. S. Iyengar, J. Tomasi, 
 M. Cossi, N. Rega, J. M. Millam, M. Klene, J. E. Knox, J. B. Cross, 
 V. Bakken, C. Adamo, J. Jaramillo, R. Gomperts, R. E. Stratmann, 
 O. Yazyev, A. J. Austin, R. Cammi, C. Pomelli, J. W. Ochterski, 
 R. L. Martin, K. Morokuma, V. G. Zakrzewski, G. A. Voth, 
 P. Salvador, J. J. Dannenberg, S. Dapprich, A. D. Daniels, 
 O. Farkas, J. B. Foresman, J. V. Ortiz, J. Cioslowski, 
 and D. J. Fox, Gaussian, Inc., Wallingford CT, 2010.
 
 ******************************************
 Gaussian 09:  EM64L-G09RevB.01 12-Aug-2010
                 4-Jan-2018 
 ******************************************
 %nproc=4
 Will use up to    4 processors via shared memory.
 %mem=60gb
 -----------------------
 #B3LYP/6-31G* fopt test
 -----------------------
 1/14=-1,18=20,19=15,26=3,38=1/1,3;
 2/9=110,12=2,14=103,17=6,18=5,40=1/2;
 3/5=1,6=6,7=1,11=2,16=1,25=1,30=1,71=1,74=-5/1,2,3;
 4//1;
 5/5=2,38=5/2;
 6/7=2,8=2,9=2,10=2,28=1/1;
 7//1,2,3,16;
 1/14=-1,18=20,19=15/3(2);
 2/9=110/2;
 99//99;
 2/9=110/2;
 3/5=1,6=6,7=1,11=2,16=1,25=1,30=1,71=1,74=-5/1,2,3;
 4/5=5,16=3/1;
 5/5=2,38=5/2;
 7//1,2,3,16;
 1/14=-1,18=20,19=15/3(-5);
 2/9=110/2;
 6/7=2,8=2,9=2,10=2,19=2,28=1/1;
 99/9=1/99;
 --------------------------
 Sugars/R-S-S-Fructuose.xyz
 --------------------------
 Symbolic Z-matrix:
 Charge =  0 Multiplicity = 1
 C                     0.        0.        0. 
 O                     0.        0.        1.41352 
 H                     0.92749   0.        1.70592 
 H                     0.51803  -0.89725  -0.34815 
 H                     0.51786   0.89695  -0.34677 
 C                    -1.42147   0.       -0.52884 
 O                    -2.38889  -0.0311    0.23329 
 C                    -1.59838   0.00492  -2.04619 
 C                    -0.29803   0.04539  -2.86317 
 C                    -0.4755    0.02154  -4.39287 
 C                     0.86828   0.04202  -5.12195 
 H                     1.4567   -0.85196  -4.89019 
 H                     1.45026   0.93508  -4.87855 
 O                     0.62907   0.0516   -6.5257 
 H                     1.49772   0.05882  -6.96259 
 H                    -2.23088   0.86564  -2.28847 
 O                    -2.32272  -1.16099  -2.41868 
 H                    -3.17739  -0.87514  -2.78481 
 H                     0.31509   0.92124  -2.6144 
 O                     0.44258  -1.09678  -2.44321 
 H                     1.27832  -0.78635  -2.05615 
 H                    -0.89086  -0.93813  -4.72015 
 O                    -1.23294   1.15613  -4.81274 
 H                    -1.99454   0.83438  -5.32464 
 

 GradGradGradGradGradGradGradGradGradGradGradGradGradGradGradGradGradGrad
 Berny optimization.
 Initialization pass.
                           ----------------------------
                           !    Initial Parameters    !
                           ! (Angstroms and Degrees)  !
 --------------------------                            --------------------------
 ! Name  Definition              Value          Derivative Info.                !
 --------------------------------------------------------------------------------
 ! R1    R(1,2)                  1.4135         estimate D2E/DX2                !
 ! R2    R(1,4)                  1.093          estimate D2E/DX2                !
 ! R3    R(1,5)                  1.0922         estimate D2E/DX2                !
 ! R4    R(1,6)                  1.5167         estimate D2E/DX2                !
 ! R5    R(2,3)                  0.9725         estimate D2E/DX2                !
 ! R6    R(6,7)                  1.232          estimate D2E/DX2                !
 ! R7    R(6,8)                  1.5276         estimate D2E/DX2                !
 ! R8    R(8,9)                  1.5362         estimate D2E/DX2                !
 ! R9    R(8,16)                 1.0953         estimate D2E/DX2                !
 ! R10   R(8,17)                 1.4222         estimate D2E/DX2                !
 ! R11   R(9,10)                 1.5401         estimate D2E/DX2                !
 ! R12   R(9,19)                 1.0977         estimate D2E/DX2                !
 ! R13   R(9,20)                 1.4246         estimate D2E/DX2                !
 ! R14   R(10,11)                1.529          estimate D2E/DX2                !
 ! R15   R(10,22)                1.0957         estimate D2E/DX2                !
 ! R16   R(10,23)                1.4273         estimate D2E/DX2                !
 ! R17   R(11,12)                1.0951         estimate D2E/DX2                !
 ! R18   R(11,13)                1.0934         estimate D2E/DX2                !
 ! R19   R(11,14)                1.424          estimate D2E/DX2                !
 ! R20   R(14,15)                0.9724         estimate D2E/DX2                !
 ! R21   R(17,18)                0.9727         estimate D2E/DX2                !
 ! R22   R(20,21)                0.9719         estimate D2E/DX2                !
 ! R23   R(23,24)                0.9724         estimate D2E/DX2                !
 ! A1    A(2,1,4)              108.574          estimate D2E/DX2                !
 ! A2    A(2,1,5)              108.511          estimate D2E/DX2                !
 ! A3    A(2,1,6)              110.407          estimate D2E/DX2                !
 ! A4    A(4,1,5)              110.3838         estimate D2E/DX2                !
 ! A5    A(4,1,6)              109.4597         estimate D2E/DX2                !
 ! A6    A(5,1,6)              109.4917         estimate D2E/DX2                !
 ! A7    A(1,2,3)              107.498          estimate D2E/DX2                !
 ! A8    A(1,6,7)              121.351          estimate D2E/DX2                !
 ! A9    A(1,6,8)              117.057          estimate D2E/DX2                !
 ! A10   A(7,6,8)              121.5748         estimate D2E/DX2                !
 ! A11   A(6,8,9)              115.486          estimate D2E/DX2                !
 ! A12   A(6,8,16)             106.8055         estimate D2E/DX2                !
 ! A13   A(6,8,17)             108.4505         estimate D2E/DX2                !
 ! A14   A(9,8,16)             110.516          estimate D2E/DX2                !
 ! A15   A(9,8,17)             108.265          estimate D2E/DX2                !
 ! A16   A(16,8,17)            106.9882         estimate D2E/DX2                !
 ! A17   A(8,9,10)             115.484          estimate D2E/DX2                !
 ! A18   A(8,9,19)             111.9187         estimate D2E/DX2                !
 ! A19   A(8,9,20)             105.1981         estimate D2E/DX2                !
 ! A20   A(10,9,19)            107.567          estimate D2E/DX2                !
 ! A21   A(10,9,20)            109.894          estimate D2E/DX2                !
 ! A22   A(19,9,20)            106.4113         estimate D2E/DX2                !
 ! A23   A(9,10,11)            111.847          estimate D2E/DX2                !
 ! A24   A(9,10,22)            110.727          estimate D2E/DX2                !
 ! A25   A(9,10,23)            109.938          estimate D2E/DX2                !
 ! A26   A(11,10,22)           101.6812         estimate D2E/DX2                !
 ! A27   A(11,10,23)           108.3891         estimate D2E/DX2                !
 ! A28   A(22,10,23)           114.0276         estimate D2E/DX2                !
 ! A29   A(10,11,12)           111.125          estimate D2E/DX2                !
 ! A30   A(10,11,13)           111.8759         estimate D2E/DX2                !
 ! A31   A(10,11,14)           108.815          estimate D2E/DX2                !
 ! A32   A(12,11,13)           109.4922         estimate D2E/DX2                !
 ! A33   A(12,11,14)           107.7211         estimate D2E/DX2                !
 ! A34   A(13,11,14)           107.6593         estimate D2E/DX2                !
 ! A35   A(11,14,15)           107.0319         estimate D2E/DX2                !
 ! A36   A(8,17,18)            107.768          estimate D2E/DX2                !
 ! A37   A(9,20,21)            107.96           estimate D2E/DX2                !
 ! A38   A(10,23,24)           107.9061         estimate D2E/DX2                !
 ! D1    D(4,1,2,3)             60.0            estimate D2E/DX2                !
 ! D2    D(5,1,2,3)            -60.0            estimate D2E/DX2                !
 ! D3    D(6,1,2,3)            180.0            estimate D2E/DX2                !
 ! D4    D(2,1,6,7)             -1.694          estimate D2E/DX2                !
 ! D5    D(2,1,6,8)            179.793          estimate D2E/DX2                !
 ! D6    D(4,1,6,7)            117.7715         estimate D2E/DX2                !
 ! D7    D(4,1,6,8)            -60.7415         estimate D2E/DX2                !
 ! D8    D(5,1,6,7)           -121.102          estimate D2E/DX2                !
 ! D9    D(5,1,6,8)             60.385          estimate D2E/DX2                !
 ! D10   D(1,6,8,9)             -1.4906         estimate D2E/DX2                !
 ! D11   D(1,6,8,16)          -124.8258         estimate D2E/DX2                !
 ! D12   D(1,6,8,17)           120.1809         estimate D2E/DX2                !
 ! D13   D(7,6,8,9)            180.0            estimate D2E/DX2                !
 ! D14   D(7,6,8,16)            56.6647         estimate D2E/DX2                !
 ! D15   D(7,6,8,17)           -58.3286         estimate D2E/DX2                !
 ! D16   D(6,8,9,10)           178.812          estimate D2E/DX2                !
 ! D17   D(6,8,9,19)           -57.6707         estimate D2E/DX2                !
 ! D18   D(6,8,9,20)            57.4731         estimate D2E/DX2                !
 ! D19   D(16,8,9,10)          -59.8319         estimate D2E/DX2                !
 ! D20   D(16,8,9,19)           63.6854         estimate D2E/DX2                !
 ! D21   D(16,8,9,20)          178.8291         estimate D2E/DX2                !
 ! D22   D(17,8,9,10)           57.041          estimate D2E/DX2                !
 ! D23   D(17,8,9,19)         -179.4417         estimate D2E/DX2                !
 ! D24   D(17,8,9,20)          -64.298          estimate D2E/DX2                !
 ! D25   D(6,8,17,18)          114.8739         estimate D2E/DX2                !
 ! D26   D(9,8,17,18)         -119.126          estimate D2E/DX2                !
 ! D27   D(16,8,17,18)          -0.0001         estimate D2E/DX2                !
 ! D28   D(8,9,10,11)         -179.087          estimate D2E/DX2                !
 ! D29   D(8,9,10,22)          -66.447          estimate D2E/DX2                !
 ! D30   D(8,9,10,23)           60.45           estimate D2E/DX2                !
 ! D31   D(19,9,10,11)          55.1349         estimate D2E/DX2                !
 ! D32   D(19,9,10,22)         167.775          estimate D2E/DX2                !
 ! D33   D(19,9,10,23)         -65.3281         estimate D2E/DX2                !
 ! D34   D(20,9,10,11)         -60.315          estimate D2E/DX2                !
 ! D35   D(20,9,10,22)          52.325          estimate D2E/DX2                !
 ! D36   D(20,9,10,23)         179.222          estimate D2E/DX2                !
 ! D37   D(8,9,20,21)         -118.8985         estimate D2E/DX2                !
 ! D38   D(10,9,20,21)         116.1799         estimate D2E/DX2                !
 ! D39   D(19,9,20,21)           0.0            estimate D2E/DX2                !
 ! D40   D(9,10,11,12)          62.961          estimate D2E/DX2                !
 ! D41   D(9,10,11,13)         -59.764          estimate D2E/DX2                !
 ! D42   D(9,10,11,14)        -178.59           estimate D2E/DX2                !
 ! D43   D(22,10,11,12)        -55.2198         estimate D2E/DX2                !
 ! D44   D(22,10,11,13)       -177.9447         estimate D2E/DX2                !
 ! D45   D(22,10,11,14)         63.2292         estimate D2E/DX2                !
 ! D46   D(23,10,11,12)       -175.677          estimate D2E/DX2                !
 ! D47   D(23,10,11,13)         61.598          estimate D2E/DX2                !
 ! D48   D(23,10,11,14)        -57.228          estimate D2E/DX2                !
 ! D49   D(9,10,23,24)        -125.0235         estimate D2E/DX2                !
 ! D50   D(11,10,23,24)        112.4458         estimate D2E/DX2                !
 ! D51   D(22,10,23,24)          0.0            estimate D2E/DX2                !
 ! D52   D(10,11,14,15)       -179.647          estimate D2E/DX2                !
 ! D53   D(12,11,14,15)        -59.077          estimate D2E/DX2                !
 ! D54   D(13,11,14,15)         58.9155         estimate D2E/DX2                !
 --------------------------------------------------------------------------------
 Trust Radius=3.00D-01 FncErr=1.00D-07 GrdErr=1.00D-06
 Number of steps in this run=    125 maximum allowed number of steps=    144.
 GradGradGradGradGradGradGradGradGradGradGradGradGradGradGradGradGradGrad

                          Input orientation:                          
 ---------------------------------------------------------------------
 Center     Atomic      Atomic             Coordinates (Angstroms)
 Number     Number       Type             X           Y           Z
 ---------------------------------------------------------------------
      1          6           0        0.000000    0.000000    0.000000
      2          8           0        0.000000    0.000000    1.413516
      3          1           0        0.927487    0.000000    1.705916
      4          1           0        0.518025   -0.897246   -0.348146
      5          1           0        0.517855    0.896952   -0.346765
      6          6           0       -1.421472    0.000000   -0.528838
      7          8           0       -2.388894   -0.031101    0.233292
      8          6           0       -1.598381    0.004915   -2.046186
      9          6           0       -0.298033    0.045392   -2.863171
     10          6           0       -0.475503    0.021535   -4.392866
     11          6           0        0.868280    0.042020   -5.121945
     12          1           0        1.456696   -0.851959   -4.890189
     13          1           0        1.450260    0.935079   -4.878545
     14          8           0        0.629072    0.051603   -6.525700
     15          1           0        1.497715    0.058819   -6.962591
     16          1           0       -2.230879    0.865635   -2.288466
     17          8           0       -2.322721   -1.160985   -2.418677
     18          1           0       -3.177394   -0.875136   -2.784805
     19          1           0        0.315092    0.921242   -2.614396
     20          8           0        0.442584   -1.096782   -2.443213
     21          1           0        1.278324   -0.786348   -2.056148
     22          1           0       -0.890860   -0.938129   -4.720149
     23          8           0       -1.232935    1.156129   -4.812737
     24          1           0       -1.994538    0.834382   -5.324640
 ---------------------------------------------------------------------
                    Distance matrix (angstroms):
                    1          2          3          4          5
     1  C    0.000000
     2  O    1.413516   0.000000
     3  H    1.941747   0.972486   0.000000
     4  H    1.092980   2.043735   2.278570   0.000000
     5  H    1.092219   2.042373   2.277240   1.794199   0.000000
     6  C    1.516658   2.406932   3.242180   2.144609   2.144449
     7  O    2.400460   2.664716   3.628770   3.088439   3.105952
     8  C    2.596483   3.811087   4.523086   2.859442   2.856959
     9  C    2.878998   4.287299   4.730805   2.807110   2.779051
    10  C    4.418579   5.825859   6.258114   4.265093   4.257235
    11  C    5.195190   6.593021   6.828247   4.877915   4.863749
    12  H    5.173176   6.525680   6.671919   4.638244   4.958106
    13  H    5.174730   6.524390   6.671041   4.975037   4.626863
    14  O    6.556154   7.964267   8.237185   6.250985   6.237485
    15  H    7.122098   8.509158   8.687441   6.754608   6.740308
    16  H    3.311076   4.408040   5.165238   3.798561   3.365520
    17  O    3.548650   4.629106   5.378104   3.525123   4.073917
    18  H    4.314723   5.337377   6.146746   4.426502   4.768564
    19  H    2.789809   4.143917   4.459687   2.912725   2.276808
    20  O    2.714425   4.034002   4.318950   2.105899   2.894086
    21  H    2.545624   3.780347   3.859346   1.872865   2.516705
    22  H    4.894234   6.268617   6.743944   4.593587   4.947574
    23  O    5.100902   6.451588   6.963971   5.216779   4.803888
    24  H    5.746840   7.076519   7.659187   5.837551   5.576314
                    6          7          8          9         10
     6  C    0.000000
     7  O    1.231956   0.000000
     8  C    1.527634   2.412929   0.000000
     9  C    2.591001   3.737062   1.536232   0.000000
    10  C    3.978195   5.006513   2.601545   1.540140   0.000000
    11  C    5.132384   6.268420   3.942853   2.542117   1.528963
    12  H    5.294437   6.458516   4.260995   2.827210   2.178007
    13  H    5.295391   6.465561   4.263997   2.812437   2.186095
    14  O    6.337961   7.402630   5.002976   3.778053   2.402076
    15  H    7.065288   8.178909   5.810314   4.475504   3.240134
    16  H    2.121498   2.681113   1.095259   2.176919   2.867464
    17  O    2.394082   2.883393   1.422231   2.398392   2.950930
    18  H    2.989734   3.231569   1.952775   3.023943   3.269571
    19  H    2.865989   4.040770   2.196337   1.097691   2.144171
    20  O    2.888333   4.039384   2.353063   1.424584   2.427893
    21  H    3.199987   4.388670   2.983560   1.956522   3.031309
    22  H    4.327669   5.253892   2.922327   2.183375   1.095715
    23  O    4.441168   5.311136   3.018716   2.430758   1.427340
    24  H    4.901460   5.638722   3.404881   3.091838   1.958671
                   11         12         13         14         15
    11  C    0.000000
    12  H    1.095054   0.000000
    13  H    1.093389   1.787088   0.000000
    14  O    1.424023   2.043595   2.041568   0.000000
    15  H    1.945366   2.264078   2.261268   0.972351   0.000000
    16  H    4.279221   4.828799   4.501568   5.176497   6.033308
    17  O    4.351708   4.526352   4.967879   5.201066   6.060595
    18  H    4.761394   5.089987   5.392199   5.416856   6.338991
    19  H    2.714194   3.102698   2.532818   4.019099   4.587937
    20  O    2.941716   2.660085   3.327869   4.245028   4.782624
    21  H    3.202099   2.840407   3.310407   4.593537   4.983535
    22  H    2.053462   2.355283   3.002472   2.559253   3.424579
    23  O    2.398323   3.357459   2.693089   2.760668   3.644504
    24  H    2.977356   3.865684   3.475021   2.989752   3.934490
                   16         17         18         19         20
    16  H    0.000000
    17  O    2.032874   0.000000
    18  H    2.042676   0.972741   0.000000
    19  H    2.567351   3.366308   3.931090   0.000000
    20  O    3.320005   2.766159   3.642808   2.029280   0.000000
    21  H    3.885553   3.638586   4.515778   2.038460   0.971931
    22  H    3.310936   2.719681   2.996291   3.057086   2.643422
    23  O    2.729876   3.505449   3.466910   2.698937   3.673910
    24  H    3.045519   3.540313   3.282128   3.561932   4.239290
                   21         22         23         24
    21  H    0.000000
    22  H    3.438793   0.000000
    23  O    4.204572   2.124030   0.000000
    24  H    4.901166   2.173778   0.972422   0.000000
 Stoichiometry    C6H12O6
 Framework group  C1[X(C6H12O6)]
 Deg. of freedom    66
 Full point group                 C1      NOp   1
 Largest Abelian subgroup         C1      NOp   1
 Largest concise Abelian subgroup C1      NOp   1
                         Standard orientation:                         
 ---------------------------------------------------------------------
 Center     Atomic      Atomic             Coordinates (Angstroms)
 Number     Number       Type             X           Y           Z
 ---------------------------------------------------------------------
      1          6           0        2.360974   -1.031549   -0.236006
      2          8           0        3.749284   -1.285322   -0.314894
      3          1           0        3.868506   -2.249690   -0.353746
      4          1           0        1.970543   -1.508828    0.666422
      5          1           0        1.881307   -1.447962   -1.124523
      6          6           0        2.098989    0.460937   -0.171957
      7          8           0        3.024295    1.274189   -0.159945
      8          6           0        0.640488    0.907448   -0.087881
      9          6           0       -0.399460   -0.222958   -0.114278
     10          6           0       -1.868533    0.225345   -0.000781
     11          6           0       -2.828998   -0.964227   -0.013185
     12          1           0       -2.662781   -1.614712    0.851907
     13          1           0       -2.740441   -1.549772   -0.932311
     14          8           0       -4.164886   -0.476700    0.061405
     15          1           0       -4.751658   -1.252038    0.057482
     16          1           0        0.473597    1.602033   -0.918117
     17          8           0        0.464703    1.646865    1.114243
     18          1           0        0.245444    2.562592    0.870122
     19          1           0       -0.310394   -0.840673   -1.017284
     20          8           0       -0.063423   -1.065301    0.984347
     21          1           0        0.149711   -1.945918    0.632582
     22          1           0       -2.066288    0.659869    0.985460
     23          8           0       -2.201056    1.083946   -1.091437
     24          1           0       -2.549656    1.913702   -0.723214
 ---------------------------------------------------------------------
 Rotational constants (GHZ):      1.8480208      0.4468551      0.3970147
 Standard basis: 6-31G(d) (6D, 7F)
 There are   204 symmetry adapted basis functions of A   symmetry.
 Integral buffers will be    131072 words long.
 Raffenetti 2 integral format.
 Two-electron integral symmetry is turned on.
   204 basis functions,   384 primitive gaussians,   204 cartesian basis functions
    48 alpha electrons       48 beta electrons
       nuclear repulsion energy       781.3521379222 Hartrees.
 NAtoms=   24 NActive=   24 NUniq=   24 SFac= 1.00D+00 NAtFMM=   50 NAOKFM=F Big=F
 One-electron integrals computed using PRISM.
 NBasis=   204 RedAO= T  NBF=   204
 NBsUse=   204 1.00D-06 NBFU=   204
 Harris functional with IExCor=  402 diagonalized for initial guess.
 ExpMin= 1.61D-01 ExpMax= 5.48D+03 ExpMxC= 8.25D+02 IAcc=1 IRadAn=         1 AccDes= 0.00D+00
 HarFok:  IExCor=  402 AccDes= 0.00D+00 IRadAn=         1 IDoV= 1
 ScaDFX=  1.000000  1.000000  1.000000  1.000000
 FoFCou: FMM=F IPFlag=           0 FMFlag=      100000 FMFlg1=           0
         NFxFlg=           0 DoJE=T BraDBF=F KetDBF=T FulRan=T
         Omega=  0.000000  0.000000  1.000000  0.000000  0.000000 ICntrl=     500 IOpCl=  0
         NMat0=    1 NMatS0=    1 NMatT0=    0 NMatD0=    1 NMtDS0=    0 NMtDT0=    0
         I1Cent=           4 NGrid=           0.
 Petite list used in FoFCou.
 Initial guess orbital symmetries:
       Occupied  (A) (A) (A) (A) (A) (A) (A) (A) (A) (A) (A) (A)
                 (A) (A) (A) (A) (A) (A) (A) (A) (A) (A) (A) (A)
                 (A) (A) (A) (A) (A) (A) (A) (A) (A) (A) (A) (A)
                 (A) (A) (A) (A) (A) (A) (A) (A) (A) (A) (A) (A)
       Virtual   (A) (A) (A) (A) (A) (A) (A) (A) (A) (A) (A) (A)
                 (A) (A) (A) (A) (A) (A) (A) (A) (A) (A) (A) (A)
                 (A) (A) (A) (A) (A) (A) (A) (A) (A) (A) (A) (A)
                 (A) (A) (A) (A) (A) (A) (A) (A) (A) (A) (A) (A)
                 (A) (A) (A) (A) (A) (A) (A) (A) (A) (A) (A) (A)
                 (A) (A) (A) (A) (A) (A) (A) (A) (A) (A) (A) (A)
                 (A) (A) (A) (A) (A) (A) (A) (A) (A) (A) (A) (A)
                 (A) (A) (A) (A) (A) (A) (A) (A) (A) (A) (A) (A)
                 (A) (A) (A) (A) (A) (A) (A) (A) (A) (A) (A) (A)
                 (A) (A) (A) (A) (A) (A) (A) (A) (A) (A) (A) (A)
                 (A) (A) (A) (A) (A) (A) (A) (A) (A) (A) (A) (A)
                 (A) (A) (A) (A) (A) (A) (A) (A) (A) (A) (A) (A)
                 (A) (A) (A) (A) (A) (A) (A) (A) (A) (A) (A) (A)
 The electronic state of the initial guess is 1-A.
 Requested convergence on RMS density matrix=1.00D-08 within 128 cycles.
 Requested convergence on MAX density matrix=1.00D-06.
 Requested convergence on             energy=1.00D-06.
 No special actions if energy rises.
 Keep R1 ints in memory in canonical form, NReq=223281102.
 Integral accuracy reduced to 1.0D-05 until final iterations.
 Initial convergence to 1.0D-05 achieved.  Increase integral accuracy.
 SCF Done:  E(RB3LYP) =  -687.088277677     A.U. after   14 cycles
             Convg  =    0.6865D-08             -V/T =  2.0085

 **********************************************************************

            Population analysis using the SCF density.

 **********************************************************************

 Orbital symmetries:
       Occupied  (A) (A) (A) (A) (A) (A) (A) (A) (A) (A) (A) (A)
                 (A) (A) (A) (A) (A) (A) (A) (A) (A) (A) (A) (A)
                 (A) (A) (A) (A) (A) (A) (A) (A) (A) (A) (A) (A)
                 (A) (A) (A) (A) (A) (A) (A) (A) (A) (A) (A) (A)
       Virtual   (A) (A) (A) (A) (A) (A) (A) (A) (A) (A) (A) (A)
                 (A) (A) (A) (A) (A) (A) (A) (A) (A) (A) (A) (A)
                 (A) (A) (A) (A) (A) (A) (A) (A) (A) (A) (A) (A)
                 (A) (A) (A) (A) (A) (A) (A) (A) (A) (A) (A) (A)
                 (A) (A) (A) (A) (A) (A) (A) (A) (A) (A) (A) (A)
                 (A) (A) (A) (A) (A) (A) (A) (A) (A) (A) (A) (A)
                 (A) (A) (A) (A) (A) (A) (A) (A) (A) (A) (A) (A)
                 (A) (A) (A) (A) (A) (A) (A) (A) (A) (A) (A) (A)
                 (A) (A) (A) (A) (A) (A) (A) (A) (A) (A) (A) (A)
                 (A) (A) (A) (A) (A) (A) (A) (A) (A) (A) (A) (A)
                 (A) (A) (A) (A) (A) (A) (A) (A) (A) (A) (A) (A)
                 (A) (A) (A) (A) (A) (A) (A) (A) (A) (A) (A) (A)
                 (A) (A) (A) (A) (A) (A) (A) (A) (A) (A) (A) (A)
 The electronic state is 1-A.
 Alpha  occ. eigenvalues --  -19.16365 -19.15653 -19.15586 -19.14483 -19.14322
 Alpha  occ. eigenvalues --  -19.14147 -10.27662 -10.25365 -10.24915 -10.24448
 Alpha  occ. eigenvalues --  -10.24220 -10.23114  -1.05428  -1.03841  -1.03072
 Alpha  occ. eigenvalues --   -1.02432  -1.01032  -1.00918  -0.78365  -0.75452
 Alpha  occ. eigenvalues --   -0.70948  -0.64995  -0.59008  -0.56944  -0.54221
 Alpha  occ. eigenvalues --   -0.53059  -0.52575  -0.51497  -0.49537  -0.48048
 Alpha  occ. eigenvalues --   -0.47126  -0.44527  -0.43876  -0.42560  -0.41232
 Alpha  occ. eigenvalues --   -0.40278  -0.36498  -0.36087  -0.34991  -0.34675
 Alpha  occ. eigenvalues --   -0.33712  -0.32600  -0.31295  -0.29013  -0.27605
 Alpha  occ. eigenvalues --   -0.26709  -0.26070  -0.24224
 Alpha virt. eigenvalues --   -0.02994   0.03301   0.04846   0.06374   0.07059
 Alpha virt. eigenvalues --    0.09257   0.11341   0.13762   0.14480   0.15604
 Alpha virt. eigenvalues --    0.16067   0.16192   0.18473   0.19327   0.19732
 Alpha virt. eigenvalues --    0.21316   0.23130   0.23630   0.24561   0.27378
 Alpha virt. eigenvalues --    0.29154   0.31577   0.34712   0.37847   0.52574
 Alpha virt. eigenvalues --    0.53927   0.54761   0.55522   0.56524   0.58007
 Alpha virt. eigenvalues --    0.59930   0.60478   0.63264   0.64985   0.65800
 Alpha virt. eigenvalues --    0.67145   0.68842   0.71059   0.72544   0.74312
 Alpha virt. eigenvalues --    0.77255   0.78622   0.80370   0.80954   0.81695
 Alpha virt. eigenvalues --    0.82481   0.82952   0.84257   0.85288   0.86616
 Alpha virt. eigenvalues --    0.88507   0.90988   0.91923   0.92646   0.93131
 Alpha virt. eigenvalues --    0.93801   0.96134   0.96634   0.97837   0.99174
 Alpha virt. eigenvalues --    1.00031   1.00989   1.03611   1.04689   1.06864
 Alpha virt. eigenvalues --    1.09012   1.09539   1.11982   1.12815   1.15654
 Alpha virt. eigenvalues --    1.18110   1.21215   1.23655   1.26830   1.29979
 Alpha virt. eigenvalues --    1.33008   1.33787   1.36436   1.39857   1.43367
 Alpha virt. eigenvalues --    1.47763   1.51871   1.53972   1.57109   1.58933
 Alpha virt. eigenvalues --    1.62028   1.62978   1.67558   1.68313   1.70802
 Alpha virt. eigenvalues --    1.71621   1.73721   1.74004   1.75338   1.77084
 Alpha virt. eigenvalues --    1.79576   1.79822   1.82391   1.84122   1.86626
 Alpha virt. eigenvalues --    1.87725   1.91393   1.93629   1.94935   1.96005
 Alpha virt. eigenvalues --    1.98648   2.00044   2.01267   2.06466   2.07412
 Alpha virt. eigenvalues --    2.11370   2.13583   2.13973   2.16928   2.18019
 Alpha virt. eigenvalues --    2.20611   2.23639   2.25550   2.28509   2.32670
 Alpha virt. eigenvalues --    2.34947   2.36278   2.39573   2.43399   2.46615
 Alpha virt. eigenvalues --    2.47596   2.48724   2.50721   2.53669   2.58530
 Alpha virt. eigenvalues --    2.60332   2.62101   2.63525   2.65068   2.68438
 Alpha virt. eigenvalues --    2.73772   2.79808   2.89225   2.89384   2.91423
 Alpha virt. eigenvalues --    2.95178   2.98582   3.01561   3.05019   3.69045
 Alpha virt. eigenvalues --    3.74789   3.77797   3.81256   3.90660   4.05708
 Alpha virt. eigenvalues --    4.17659   4.26929   4.39843   4.43338   4.56089
 Alpha virt. eigenvalues --    4.73144
          Condensed to atoms (all electrons):
              1          2          3          4          5          6
     1  C    5.202812   0.216393  -0.022295   0.345543   0.338435   0.257587
     2  O    0.216393   8.256347   0.231984  -0.031829  -0.038376  -0.032540
     3  H   -0.022295   0.231984   0.401068  -0.003668  -0.004644   0.006529
     4  H    0.345543  -0.031829  -0.003668   0.577192  -0.046956  -0.031010
     5  H    0.338435  -0.038376  -0.004644  -0.046956   0.640132  -0.032576
     6  C    0.257587  -0.032540   0.006529  -0.031010  -0.032576   4.648869
     7  O   -0.081479   0.002662   0.000237  -0.000406   0.000764   0.562254
     8  C   -0.127909   0.001904  -0.000222   0.007471   0.003693   0.267791
     9  C    0.005741   0.000092   0.000010  -0.006971  -0.000233  -0.038238
    10  C    0.000094   0.000000   0.000000   0.000224   0.000271   0.002168
    11  C    0.000004   0.000000   0.000000  -0.000034  -0.000006   0.000039
    12  H   -0.000003   0.000000   0.000000  -0.000001   0.000001   0.000005
    13  H   -0.000002   0.000000   0.000000  -0.000001  -0.000009  -0.000001
    14  O    0.000000   0.000000   0.000000   0.000000   0.000000   0.000000
    15  H    0.000000   0.000000   0.000000   0.000000   0.000000   0.000000
    16  H    0.006905  -0.000032   0.000005   0.000226  -0.000630  -0.029248
    17  O    0.002683  -0.000007   0.000001  -0.000045   0.000067  -0.043494
    18  H   -0.000242   0.000001   0.000000  -0.000012   0.000002   0.001945
    19  H   -0.003771  -0.000014  -0.000006   0.000799   0.005742   0.001706
    20  O   -0.015099   0.000365   0.000017   0.020942  -0.001349  -0.006207
    21  H    0.006971  -0.000227  -0.000074  -0.001061   0.000734  -0.001671
    22  H   -0.000021   0.000000   0.000000   0.000007   0.000000   0.000180
    23  O   -0.000001   0.000000   0.000000  -0.000003  -0.000002   0.000324
    24  H    0.000000   0.000000   0.000000   0.000000   0.000000   0.000002
              7          8          9         10         11         12
     1  C   -0.081479  -0.127909   0.005741   0.000094   0.000004  -0.000003
     2  O    0.002662   0.001904   0.000092   0.000000   0.000000   0.000000
     3  H    0.000237  -0.000222   0.000010   0.000000   0.000000   0.000000
     4  H   -0.000406   0.007471  -0.006971   0.000224  -0.000034  -0.000001
     5  H    0.000764   0.003693  -0.000233   0.000271  -0.000006   0.000001
     6  C    0.562254   0.267791  -0.038238   0.002168   0.000039   0.000005
     7  O    8.003356  -0.059675   0.003053  -0.000051   0.000000   0.000000
     8  C   -0.059675   5.176412   0.254292  -0.026691   0.005633  -0.000085
     9  C    0.003053   0.254292   5.143795   0.283929  -0.052801   0.001820
    10  C   -0.000051  -0.026691   0.283929   4.946217   0.338383  -0.033356
    11  C    0.000000   0.005633  -0.052801   0.338383   4.931256   0.349934
    12  H    0.000000  -0.000085   0.001820  -0.033356   0.349934   0.639172
    13  H    0.000000  -0.000137  -0.003395  -0.034821   0.346763  -0.052330
    14  O    0.000000  -0.000023   0.001983  -0.045561   0.243088  -0.039953
    15  H    0.000000   0.000003  -0.000234   0.006161  -0.022790  -0.004111
    16  H   -0.001932   0.341238  -0.045916  -0.002324   0.000190  -0.000014
    17  O   -0.000644   0.225124  -0.070071   0.004831   0.000276   0.000000
    18  H    0.000774  -0.014843   0.004897   0.000841   0.000012  -0.000001
    19  H    0.000018  -0.046712   0.348266  -0.039172  -0.009888   0.000164
    20  O   -0.000087  -0.052273   0.175723  -0.039236   0.003209   0.008081
    21  H    0.000015   0.009091  -0.016485   0.001173   0.000575   0.000519
    22  H   -0.000001  -0.008991  -0.038460   0.355545  -0.056256  -0.005433
    23  O    0.000000   0.007427  -0.048959   0.205979  -0.053132   0.004076
    24  H    0.000000   0.000456   0.003468  -0.016546   0.003884  -0.000251
             13         14         15         16         17         18
     1  C   -0.000002   0.000000   0.000000   0.006905   0.002683  -0.000242
     2  O    0.000000   0.000000   0.000000  -0.000032  -0.000007   0.000001
     3  H    0.000000   0.000000   0.000000   0.000005   0.000001   0.000000
     4  H   -0.000001   0.000000   0.000000   0.000226  -0.000045  -0.000012
     5  H   -0.000009   0.000000   0.000000  -0.000630   0.000067   0.000002
     6  C   -0.000001   0.000000   0.000000  -0.029248  -0.043494   0.001945
     7  O    0.000000   0.000000   0.000000  -0.001932  -0.000644   0.000774
     8  C   -0.000137  -0.000023   0.000003   0.341238   0.225124  -0.014843
     9  C   -0.003395   0.001983  -0.000234  -0.045916  -0.070071   0.004897
    10  C   -0.034821  -0.045561   0.006161  -0.002324   0.004831   0.000841
    11  C    0.346763   0.243088  -0.022790   0.000190   0.000276   0.000012
    12  H   -0.052330  -0.039953  -0.004111  -0.000014   0.000000  -0.000001
    13  H    0.663624  -0.042053  -0.004193  -0.000009  -0.000003   0.000000
    14  O   -0.042053   8.268759   0.235230  -0.000001   0.000000   0.000000
    15  H   -0.004193   0.235230   0.396771   0.000000   0.000000   0.000000
    16  H   -0.000009  -0.000001   0.000000   0.596993  -0.024764  -0.014470
    17  O   -0.000003   0.000000   0.000000  -0.024764   8.262934   0.233835
    18  H    0.000000   0.000000   0.000000  -0.014470   0.233835   0.383178
    19  H    0.007677  -0.000037  -0.000004   0.001370   0.003376  -0.000210
    20  O    0.000071   0.000056   0.000008   0.003894   0.001155   0.000021
    21  H    0.000021  -0.000002  -0.000002  -0.000387  -0.000047  -0.000004
    22  H    0.008067   0.004456  -0.000256   0.000610   0.009674  -0.000529
    23  O   -0.001905   0.003316   0.000057   0.009242  -0.000594   0.000312
    24  H   -0.000238   0.000961  -0.000010  -0.000263   0.000182   0.000191
             19         20         21         22         23         24
     1  C   -0.003771  -0.015099   0.006971  -0.000021  -0.000001   0.000000
     2  O   -0.000014   0.000365  -0.000227   0.000000   0.000000   0.000000
     3  H   -0.000006   0.000017  -0.000074   0.000000   0.000000   0.000000
     4  H    0.000799   0.020942  -0.001061   0.000007  -0.000003   0.000000
     5  H    0.005742  -0.001349   0.000734   0.000000  -0.000002   0.000000
     6  C    0.001706  -0.006207  -0.001671   0.000180   0.000324   0.000002
     7  O    0.000018  -0.000087   0.000015  -0.000001   0.000000   0.000000
     8  C   -0.046712  -0.052273   0.009091  -0.008991   0.007427   0.000456
     9  C    0.348266   0.175723  -0.016485  -0.038460  -0.048959   0.003468
    10  C   -0.039172  -0.039236   0.001173   0.355545   0.205979  -0.016546
    11  C   -0.009888   0.003209   0.000575  -0.056256  -0.053132   0.003884
    12  H    0.000164   0.008081   0.000519  -0.005433   0.004076  -0.000251
    13  H    0.007677   0.000071   0.000021   0.008067  -0.001905  -0.000238
    14  O   -0.000037   0.000056  -0.000002   0.004456   0.003316   0.000961
    15  H   -0.000004   0.000008  -0.000002  -0.000256   0.000057  -0.000010
    16  H    0.001370   0.003894  -0.000387   0.000610   0.009242  -0.000263
    17  O    0.003376   0.001155  -0.000047   0.009674  -0.000594   0.000182
    18  H   -0.000210   0.000021  -0.000004  -0.000529   0.000312   0.000191
    19  H    0.649664  -0.035364  -0.016015   0.007208   0.001352  -0.000262
    20  O   -0.035364   8.327160   0.220259   0.001404   0.001273  -0.000091
    21  H   -0.016015   0.220259   0.402799  -0.000282  -0.000043  -0.000001
    22  H    0.007208   0.001404  -0.000282   0.604980  -0.028946  -0.010547
    23  O    0.001352   0.001273  -0.000043  -0.028946   8.288089   0.235398
    24  H   -0.000262  -0.000091  -0.000001  -0.010547   0.235398   0.377839
 Mulliken atomic charges:
              1
     1  C   -0.132346
     2  O   -0.606722
     3  H    0.391057
     4  H    0.169589
     5  H    0.134940
     6  C    0.465588
     7  O   -0.428858
     8  C    0.037027
     9  C    0.094694
    10  C    0.091942
    11  C   -0.028342
    12  H    0.131767
    13  H    0.112874
    14  O   -0.630219
    15  H    0.393372
    16  H    0.159317
    17  O   -0.604469
    18  H    0.404302
    19  H    0.124113
    20  O   -0.613931
    21  H    0.394147
    22  H    0.157592
    23  O   -0.623260
    24  H    0.405827
 Sum of Mulliken atomic charges =   0.00000
 Mulliken charges with hydrogens summed into heavy atoms:
              1
     1  C    0.172183
     2  O   -0.215665
     6  C    0.465588
     7  O   -0.428858
     8  C    0.196343
     9  C    0.218807
    10  C    0.249534
    11  C    0.216299
    14  O   -0.236847
    17  O   -0.200167
    20  O   -0.219784
    23  O   -0.217433
 Sum of Mulliken charges with hydrogens summed into heavy atoms =   0.00000
 Electronic spatial extent (au):  <R**2>=           2747.5307
 Charge=              0.0000 electrons
 Dipole moment (field-independent basis, Debye):
    X=             -3.4518    Y=             -3.4434    Z=             -1.0880  Tot=              4.9956
 Quadrupole moment (field-independent basis, Debye-Ang):
   XX=            -84.0087   YY=            -50.8830   ZZ=            -76.0160
   XY=             -6.9020   XZ=             -2.9592   YZ=              1.3488
 Traceless Quadrupole moment (field-independent basis, Debye-Ang):
   XX=            -13.7061   YY=             19.4196   ZZ=             -5.7134
   XY=             -6.9020   XZ=             -2.9592   YZ=              1.3488
 Octapole moment (field-independent basis, Debye-Ang**2):
  XXX=            -82.3466  YYY=              1.3763  ZZZ=             -0.0664  XYY=             -8.9933
  XXY=            -60.4816  XXZ=              9.8704  XZZ=              5.6698  YZZ=             -1.7118
  YYZ=              1.0363  XYZ=             -0.4779
 Hexadecapole moment (field-independent basis, Debye-Ang**3):
 XXXX=          -2563.6552 YYYY=           -402.6119 ZZZZ=           -224.2001 XXXY=             19.8865
 XXXZ=              5.3576 YYYX=            -92.5176 YYYZ=              6.9348 ZZZX=             -6.5396
 ZZZY=              1.4061 XXYY=           -357.2609 XXZZ=           -461.5612 YYZZ=           -125.4611
 XXYZ=              6.8258 YYXZ=             -2.2248 ZZXY=             -0.7081
 N-N= 7.813521379222D+02 E-N=-3.174618894520D+03  KE= 6.813254036456D+02
 Calling FoFJK, ICntrl=      2127 FMM=F ISym2X=0 I1Cent= 0 IOpClX= 0 NMat=1 NMatS=1 NMatT=0.
 ***** Axes restored to original set *****
 -------------------------------------------------------------------
 Center     Atomic                   Forces (Hartrees/Bohr)
 Number     Number              X              Y              Z
 -------------------------------------------------------------------
      1        6           0.004655723   -0.003490408    0.027692769
      2        8          -0.003533643    0.002847979    0.007564691
      3        1          -0.003937746   -0.000381151   -0.001899572
      4        1          -0.003301839    0.001640581   -0.003144917
      5        1           0.003629379    0.004081768   -0.010479399
      6        6          -0.017790451   -0.004681229    0.027977997
      7        8           0.024118144    0.001943564   -0.025244563
      8        6          -0.013821269    0.010002320   -0.016888591
      9        6           0.004482591    0.001671062    0.004882237
     10        6           0.010875188   -0.004808806   -0.009307908
     11        6           0.010226840    0.001870968   -0.009726870
     12        1          -0.000050220   -0.000474125    0.009904198
     13        1           0.001701047    0.004384143    0.008789463
     14        8          -0.005417883   -0.001122777   -0.005422869
     15        1          -0.004064909   -0.000315141    0.001604596
     16        1           0.005531202    0.006892072    0.000963191
     17        8          -0.006844053   -0.007197960   -0.004402210
     18        1           0.004659013   -0.002913297    0.004808654
     19        1          -0.008655048    0.007869248   -0.000960652
     20        8           0.016323552   -0.013344280   -0.011137022
     21        1          -0.003172116   -0.003777280   -0.007075586
     22        1          -0.012262686    0.002100698    0.005891216
     23        8          -0.009168701   -0.005419877    0.005063226
     24        1           0.005817884    0.002621928    0.000547919
 -------------------------------------------------------------------
 Cartesian Forces:  Max     0.027977997 RMS     0.009231765

 GradGradGradGradGradGradGradGradGradGradGradGradGradGradGradGradGradGrad
 Berny optimization.
 Internal  Forces:  Max     0.044577237 RMS     0.010057890
 Search for a local minimum.
 Step number   1 out of a maximum of  125
 All quantities printed in internal units (Hartrees-Bohrs-Radians)
 Mixed Optimization -- RFO/linear search
 Second derivative matrix not updated -- first step.
 ITU=  0
     Eigenvalues ---    0.00235   0.00287   0.00383   0.00400   0.00474
     Eigenvalues ---    0.00546   0.01330   0.01367   0.01374   0.01398
     Eigenvalues ---    0.01513   0.03781   0.04408   0.04529   0.04772
     Eigenvalues ---    0.04838   0.05219   0.05249   0.05567   0.06358
     Eigenvalues ---    0.07013   0.07362   0.07927   0.08477   0.11472
     Eigenvalues ---    0.11550   0.13692   0.13970   0.16000   0.16000
     Eigenvalues ---    0.16000   0.16000   0.16000   0.16590   0.17086
     Eigenvalues ---    0.18266   0.19519   0.19825   0.19831   0.22028
     Eigenvalues ---    0.22170   0.24991   0.25000   0.28507   0.28855
     Eigenvalues ---    0.29519   0.29643   0.30691   0.33939   0.34160
     Eigenvalues ---    0.34212   0.34235   0.34424   0.34470   0.34557
     Eigenvalues ---    0.41374   0.41777   0.41860   0.42126   0.43452
     Eigenvalues ---    0.52821   0.52872   0.52885   0.52899   0.52984
     Eigenvalues ---    0.90276
 RFO step:  Lambda=-4.86787257D-02 EMin= 2.34970769D-03
 Linear search not attempted -- first point.
 Maximum step size (   0.300) exceeded in Quadratic search.
    -- Step size scaled by   0.801
 Iteration  1 RMS(Cart)=  0.24980556 RMS(Int)=  0.01271324
 Iteration  2 RMS(Cart)=  0.03237137 RMS(Int)=  0.00093522
 Iteration  3 RMS(Cart)=  0.00060396 RMS(Int)=  0.00091321
 Iteration  4 RMS(Cart)=  0.00000054 RMS(Int)=  0.00091321
 Variable       Old X    -DE/DX   Delta X   Delta X   Delta X     New X
                                 (Linear)    (Quad)   (Total)
    R1        2.67116   0.00567   0.00000   0.00939   0.00939   2.68055
    R2        2.06543  -0.00191   0.00000  -0.00388  -0.00388   2.06155
    R3        2.06400   0.00840   0.00000   0.01706   0.01706   2.08105
    R4        2.86607   0.00455   0.00000   0.01025   0.01025   2.87632
    R5        1.83773  -0.00433   0.00000  -0.00600  -0.00600   1.83173
    R6        2.32806  -0.03461   0.00000  -0.02912  -0.02912   2.29893
    R7        2.88681   0.02275   0.00000   0.05280   0.05280   2.93961
    R8        2.90306   0.00908   0.00000   0.02156   0.02156   2.92462
    R9        2.06974   0.00201   0.00000   0.00412   0.00412   2.07386
   R10        2.68763   0.00929   0.00000   0.01583   0.01583   2.70346
   R11        2.91044  -0.00701   0.00000  -0.01681  -0.01681   2.89363
   R12        2.07433   0.00123   0.00000   0.00253   0.00253   2.07687
   R13        2.69207   0.01520   0.00000   0.02609   0.02609   2.71816
   R14        2.88932  -0.00029   0.00000  -0.00068  -0.00068   2.88864
   R15        2.07060   0.00105   0.00000   0.00215   0.00215   2.07275
   R16        2.69728  -0.00209   0.00000  -0.00363  -0.00363   2.69366
   R17        2.06935   0.00246   0.00000   0.00503   0.00503   2.07438
   R18        2.06621   0.00644   0.00000   0.01313   0.01313   2.07934
   R19        2.69101   0.00535   0.00000   0.00916   0.00916   2.70018
   R20        1.83748  -0.00435   0.00000  -0.00604  -0.00604   1.83144
   R21        1.83821  -0.00676   0.00000  -0.00938  -0.00938   1.82883
   R22        1.83668  -0.00675   0.00000  -0.00935  -0.00935   1.82734
   R23        1.83761  -0.00571   0.00000  -0.00792  -0.00792   1.82969
    A1        1.89497   0.00758   0.00000   0.03230   0.03201   1.92698
    A2        1.89387   0.00696   0.00000   0.02988   0.02962   1.92349
    A3        1.92697  -0.00968   0.00000  -0.02710  -0.02701   1.89996
    A4        1.92656  -0.00173   0.00000  -0.00882  -0.00945   1.91711
    A5        1.91043  -0.00201   0.00000  -0.01501  -0.01493   1.89550
    A6        1.91099  -0.00106   0.00000  -0.01079  -0.01071   1.90028
    A7        1.87619  -0.00115   0.00000  -0.00443  -0.00443   1.87177
    A8        2.11798  -0.01659   0.00000  -0.04410  -0.04461   2.07337
    A9        2.04303   0.04458   0.00000   0.11987   0.11938   2.16241
   A10        2.12188  -0.02789   0.00000  -0.07441  -0.07489   2.04699
   A11        2.01561   0.03751   0.00000   0.12855   0.12930   2.14491
   A12        1.86411  -0.01449   0.00000  -0.06554  -0.06351   1.80059
   A13        1.89282  -0.01171   0.00000  -0.02215  -0.02423   1.86859
   A14        1.92887  -0.01285   0.00000  -0.05804  -0.05597   1.87290
   A15        1.88958  -0.01030   0.00000  -0.01710  -0.01884   1.87074
   A16        1.86730   0.01055   0.00000   0.02940   0.02800   1.89529
   A17        2.01558  -0.01820   0.00000  -0.07044  -0.07014   1.94544
   A18        1.95335  -0.00264   0.00000  -0.01514  -0.01920   1.93415
   A19        1.83605   0.02786   0.00000   0.10535   0.10322   1.93927
   A20        1.87740   0.00762   0.00000  -0.00019  -0.00147   1.87593
   A21        1.91801  -0.01589   0.00000  -0.05933  -0.05649   1.86152
   A22        1.85723   0.00228   0.00000   0.04895   0.04763   1.90485
   A23        1.95210  -0.00289   0.00000  -0.00566  -0.00547   1.94663
   A24        1.93255  -0.00245   0.00000  -0.01888  -0.01930   1.91326
   A25        1.91878  -0.00220   0.00000  -0.01712  -0.01732   1.90146
   A26        1.77467   0.00713   0.00000   0.05055   0.05062   1.82530
   A27        1.89175   0.00369   0.00000   0.01553   0.01543   1.90718
   A28        1.99016  -0.00263   0.00000  -0.01918  -0.02028   1.96988
   A29        1.93950  -0.00359   0.00000  -0.02509  -0.02506   1.91443
   A30        1.95260  -0.00232   0.00000  -0.01810  -0.01803   1.93458
   A31        1.89918  -0.01186   0.00000  -0.03250  -0.03236   1.86682
   A32        1.91100  -0.00022   0.00000  -0.00349  -0.00480   1.90620
   A33        1.88009   0.00932   0.00000   0.04040   0.03980   1.91989
   A34        1.87901   0.00948   0.00000   0.04314   0.04271   1.92172
   A35        1.86806   0.00072   0.00000   0.00276   0.00276   1.87082
   A36        1.88091   0.00158   0.00000   0.00605   0.00605   1.88695
   A37        1.88426   0.00266   0.00000   0.01020   0.01020   1.89446
   A38        1.88332   0.00115   0.00000   0.00441   0.00441   1.88772
    D1        1.04720   0.00309   0.00000   0.01055   0.01111   1.05831
    D2       -1.04720  -0.00327   0.00000  -0.01496  -0.01550  -1.06270
    D3        3.14159  -0.00049   0.00000  -0.00405  -0.00407   3.13752
    D4       -0.02957  -0.00092   0.00000  -0.01203  -0.01180  -0.04137
    D5        3.13798  -0.00468   0.00000  -0.06942  -0.06969   3.06829
    D6        2.05550   0.00119   0.00000   0.00165   0.00190   2.05740
    D7       -1.06014  -0.00257   0.00000  -0.05574  -0.05599  -1.11613
    D8       -2.11363  -0.00287   0.00000  -0.02538  -0.02512  -2.13874
    D9        1.05392  -0.00662   0.00000  -0.08278  -0.08301   0.97091
   D10       -0.02602   0.00026   0.00000   0.00325   0.00224  -0.02378
   D11       -2.17862   0.00276   0.00000   0.04218   0.04280  -2.13582
   D12        2.09755   0.00360   0.00000   0.05220   0.05183   2.14938
   D13        3.14159  -0.00369   0.00000  -0.05477  -0.05527   3.08632
   D14        0.98899  -0.00119   0.00000  -0.01584  -0.01471   0.97428
   D15       -1.01803  -0.00035   0.00000  -0.00582  -0.00568  -1.02371
   D16        3.12086   0.00280   0.00000   0.08192   0.08122  -3.08111
   D17       -1.00654  -0.00353   0.00000   0.01274   0.01392  -0.99262
   D18        1.00309   0.01381   0.00000   0.12354   0.12525   1.12835
   D19       -1.04426   0.00082   0.00000   0.04306   0.04112  -1.00314
   D20        1.11152  -0.00552   0.00000  -0.02612  -0.02617   1.08534
   D21        3.12116   0.01182   0.00000   0.08468   0.08515  -3.07688
   D22        0.99555   0.00030   0.00000   0.03599   0.03433   1.02988
   D23       -3.13185  -0.00604   0.00000  -0.03319  -0.03297   3.11837
   D24       -1.12221   0.01130   0.00000   0.07760   0.07836  -1.04385
   D25        2.00493  -0.01799   0.00000  -0.08817  -0.08763   1.91730
   D26       -2.07914   0.01414   0.00000   0.04550   0.04494  -2.03420
   D27        0.00000  -0.00075   0.00000  -0.01603  -0.01601  -0.01602
   D28       -3.12566  -0.00900   0.00000  -0.05317  -0.05386   3.10367
   D29       -1.15972  -0.00340   0.00000  -0.00583  -0.00671  -1.16643
   D30        1.05505  -0.01026   0.00000  -0.05743  -0.05807   0.99698
   D31        0.96229   0.00165   0.00000   0.01878   0.01876   0.98104
   D32        2.92823   0.00724   0.00000   0.06612   0.06590   2.99413
   D33       -1.14019   0.00038   0.00000   0.01452   0.01454  -1.12565
   D34       -1.05269   0.00306   0.00000  -0.00811  -0.00725  -1.05995
   D35        0.91324   0.00865   0.00000   0.03923   0.03989   0.95314
   D36        3.12801   0.00179   0.00000  -0.01237  -0.01147   3.11655
   D37       -2.07517  -0.01147   0.00000  -0.07556  -0.07854  -2.15371
   D38        2.02772   0.00231   0.00000  -0.02193  -0.02174   2.00598
   D39        0.00000   0.00013   0.00000  -0.01850  -0.01571  -0.01571
   D40        1.09888  -0.00234   0.00000  -0.02341  -0.02334   1.07553
   D41       -1.04308   0.00221   0.00000   0.01230   0.01227  -1.03080
   D42       -3.11698  -0.00045   0.00000  -0.00909  -0.00900  -3.12598
   D43       -0.96377  -0.00221   0.00000  -0.02743  -0.02721  -0.99098
   D44       -3.10572   0.00234   0.00000   0.00828   0.00840  -3.09732
   D45        1.10356  -0.00032   0.00000  -0.01311  -0.01287   1.09069
   D46       -3.06614  -0.00443   0.00000  -0.03796  -0.03817  -3.10431
   D47        1.07509   0.00012   0.00000  -0.00225  -0.00255   1.07254
   D48       -0.99882  -0.00255   0.00000  -0.02364  -0.02383  -1.02264
   D49       -2.18207  -0.00017   0.00000  -0.00612  -0.00638  -2.18845
   D50        1.96255   0.00240   0.00000   0.00160   0.00145   1.96400
   D51        0.00000  -0.00718   0.00000  -0.05939  -0.05897  -0.05897
   D52       -3.13543   0.00070   0.00000   0.00548   0.00551  -3.12992
   D53       -1.03109  -0.00496   0.00000  -0.01965  -0.02069  -1.05178
   D54        1.02827   0.00476   0.00000   0.02058   0.02159   1.04986
         Item               Value     Threshold  Converged?
 Maximum Force            0.044577     0.000450     NO 
 RMS     Force            0.010058     0.000300     NO 
 Maximum Displacement     0.939194     0.001800     NO 
 RMS     Displacement     0.270507     0.001200     NO 
 Predicted change in Energy=-2.807829D-02
 GradGradGradGradGradGradGradGradGradGradGradGradGradGradGradGradGradGrad

                          Input orientation:                          
 ---------------------------------------------------------------------
 Center     Atomic      Atomic             Coordinates (Angstroms)
 Number     Number       Type             X           Y           Z
 ---------------------------------------------------------------------
      1          6           0       -0.068212    0.017110    0.303183
      2          8           0       -0.400735    0.155499    1.675179
      3          1           0        0.430487    0.154619    2.173812
      4          1           0        0.459963   -0.922071    0.132630
      5          1           0        0.557283    0.862447   -0.023778
      6          6           0       -1.351288    0.008262   -0.515576
      7          8           0       -2.418037    0.068698    0.066121
      8          6           0       -1.388135   -0.032904   -2.070167
      9          6           0       -0.109015   -0.038264   -2.941382
     10          6           0       -0.447573    0.004254   -4.434125
     11          6           0        0.814897    0.052917   -5.294606
     12          1           0        1.412232   -0.852556   -5.126416
     13          1           0        1.421597    0.937672   -5.049937
     14          8           0        0.388648    0.111129   -6.657177
     15          1           0        1.186905    0.131315   -7.206397
     16          1           0       -1.956868    0.868782   -2.330695
     17          8           0       -2.157333   -1.180529   -2.441567
     18          1           0       -2.994597   -0.872938   -2.817026
     19          1           0        0.518047    0.836748   -2.719989
     20          8           0        0.659029   -1.235341   -2.726724
     21          1           0        1.551101   -0.983191   -2.451610
     22          1           0       -0.944742   -0.928940   -4.725774
     23          8           0       -1.240365    1.159527   -4.696140
     24          1           0       -2.053508    0.873771   -5.137287
 ---------------------------------------------------------------------
                    Distance matrix (angstroms):
                    1          2          3          4          5
     1  C    0.000000
     2  O    1.418484   0.000000
     3  H    1.940840   0.969312   0.000000
     4  H    1.090925   2.069158   2.307933   0.000000
     5  H    1.101246   2.074615   2.312250   1.794001   0.000000
     6  C    1.522081   2.392621   3.229388   2.136895   2.148055
     7  O    2.362317   2.581881   3.544550   3.044492   3.080690
     8  C    2.716153   3.877895   4.621029   3.009717   2.962096
     9  C    3.245294   4.629825   5.147181   3.248753   3.125323
    10  C    4.752491   6.111356   6.667716   4.747310   4.604063
    11  C    5.667134   7.075746   7.478996   5.525529   5.338852
    12  H    5.694610   7.110887   7.434484   5.345018   5.450605
    13  H    5.632305   7.011410   7.333350   5.589489   5.100488
    14  O    6.975971   8.369782   8.831195   6.868337   6.677941
    15  H    7.614602   9.022393   9.410687   7.449791   7.247137
    16  H    3.351071   4.356300   5.147822   3.887955   3.412163
    17  O    3.651358   4.670996   5.457210   3.680153   4.169962
    18  H    4.369395   5.288261   6.139669   4.542782   4.840417
    19  H    3.186703   4.541559   4.941887   3.351754   2.696619
    20  O    3.358250   4.736484   5.098967   2.883343   3.423008
    21  H    3.348381   4.704961   4.893354   2.805817   3.207557
    22  H    5.191697   6.514917   7.118261   5.057403   5.251086
    23  O    5.260445   6.504364   7.141276   5.526407   5.015053
    24  H    5.854398   7.046791   7.754971   6.108568   5.741457
                    6          7          8          9         10
     6  C    0.000000
     7  O    1.216544   0.000000
     8  C    1.555572   2.373762   0.000000
     9  C    2.725792   3.793165   1.547641   0.000000
    10  C    4.021411   4.913156   2.544472   1.531246   0.000000
    11  C    5.247235   6.260153   3.906114   2.529741   1.528603
    12  H    5.444070   6.517831   4.225464   2.784177   2.161542
    13  H    5.395658   6.455383   4.208996   2.782307   2.178140
    14  O    6.384138   7.285741   4.921216   3.751949   2.377530
    15  H    7.157140   8.117208   5.747927   4.460776   3.220739
    16  H    2.098065   2.568567   1.097438   2.147145   2.729432
    17  O    2.402576   2.813722   1.430610   2.397955   2.880499
    18  H    2.962034   3.087335   1.960656   3.006447   3.141942
    19  H    3.006699   4.119818   2.193648   1.099030   2.136290
    20  O    3.236834   4.355323   2.463291   1.438389   2.382516
    21  H    3.626991   4.816586   3.112499   1.971991   2.983306
    22  H    4.332365   5.111569   2.837556   2.162359   1.096853
    23  O    4.337606   5.025530   2.887813   2.407038   1.425421
    24  H    4.754201   5.277924   3.266803   3.071621   1.956916
                   11         12         13         14         15
    11  C    0.000000
    12  H    1.097715   0.000000
    13  H    1.100337   1.791886   0.000000
    14  O    1.428872   2.078374   2.081676   0.000000
    15  H    1.949226   2.311946   2.314220   0.969157   0.000000
    16  H    4.139214   4.704243   4.337402   4.979351   5.848046
    17  O    4.300624   4.478591   4.909084   5.091342   5.967284
    18  H    4.637655   4.975323   5.269437   5.211669   6.144922
    19  H    2.707613   3.073144   2.501050   4.005586   4.590520
    20  O    2.877138   2.544084   3.271210   4.163477   4.713160
    21  H    3.114184   2.681593   3.233851   4.498402   4.897220
    22  H    2.093786   2.392002   3.031317   2.567098   3.438249
    23  O    2.409740   3.357065   2.694519   2.756535   3.640089
    24  H    2.987690   3.871908   3.476790   2.975872   3.915704
                   16         17         18         19         20
    16  H    0.000000
    17  O    2.062075   0.000000
    18  H    2.084943   0.967777   0.000000
    19  H    2.505550   3.362228   3.907826   0.000000
    20  O    3.380398   2.831291   3.672665   2.076891   0.000000
    21  H    3.968661   3.713694   4.561693   2.109836   0.966985
    22  H    3.161108   2.598322   2.801492   3.046404   2.581117
    23  O    2.488622   3.376357   3.277088   2.664839   3.636163
    24  H    2.808260   3.390846   3.052908   3.529531   4.197263
                   21         22         23         24
    21  H    0.000000
    22  H    3.376980   0.000000
    23  O    4.173899   2.109493   0.000000
    24  H    4.863576   2.156031   0.968230   0.000000
 Stoichiometry    C6H12O6
 Framework group  C1[X(C6H12O6)]
 Deg. of freedom    66
 Full point group                 C1      NOp   1
 Largest Abelian subgroup         C1      NOp   1
 Largest concise Abelian subgroup C1      NOp   1
                         Standard orientation:                         
 ---------------------------------------------------------------------
 Center     Atomic      Atomic             Coordinates (Angstroms)
 Number     Number       Type             X           Y           Z
 ---------------------------------------------------------------------
      1          6           0        2.695899   -0.997056   -0.267497
      2          8           0        4.100582   -0.894770   -0.436317
      3          1           0        4.444589   -1.795679   -0.534232
      4          1           0        2.461397   -1.577538    0.625905
      5          1           0        2.240026   -1.470407   -1.151160
      6          6           0        2.116899    0.401069   -0.103994
      7          8           0        2.875713    1.351881   -0.092272
      8          6           0        0.594975    0.701902    0.010259
      9          6           0       -0.487715   -0.401568   -0.062740
     10          6           0       -1.897922    0.192484   -0.006794
     11          6           0       -2.968637   -0.891212   -0.132485
     12          1           0       -2.882996   -1.594724    0.705796
     13          1           0       -2.859872   -1.441097   -1.079342
     14          8           0       -4.235739   -0.232185   -0.089951
     15          1           0       -4.917509   -0.917555   -0.158666
     16          1           0        0.413543    1.392974   -0.822730
     17          8           0        0.397594    1.407100    1.239235
     18          1           0        0.167198    2.322793    1.027064
     19          1           0       -0.405168   -0.968340   -1.000728
     20          8           0       -0.378245   -1.309084    1.047843
     21          1           0       -0.272030   -2.206104    0.702687
     22          1           0       -2.070867    0.638384    0.980297
     23          8           0       -2.048443    1.128330   -1.071389
     24          1           0       -2.330996    1.973398   -0.692587
 ---------------------------------------------------------------------
 Rotational constants (GHZ):      1.9566172      0.4167205      0.3816419
 Standard basis: 6-31G(d) (6D, 7F)
 There are   204 symmetry adapted basis functions of A   symmetry.
 Integral buffers will be    131072 words long.
 Raffenetti 2 integral format.
 Two-electron integral symmetry is turned on.
   204 basis functions,   384 primitive gaussians,   204 cartesian basis functions
    48 alpha electrons       48 beta electrons
       nuclear repulsion energy       772.8137071361 Hartrees.
 NAtoms=   24 NActive=   24 NUniq=   24 SFac= 1.00D+00 NAtFMM=   50 NAOKFM=F Big=F
 One-electron integrals computed using PRISM.
 NBasis=   204 RedAO= T  NBF=   204
 NBsUse=   204 1.00D-06 NBFU=   204
 Initial guess read from the read-write file.
 B after Tr=     0.000000    0.000000    0.000000
         Rot=    1.000000    0.000000    0.000000    0.000000 Ang=   0.00 deg.
 Initial guess orbital symmetries:
       Occupied  (A) (A) (A) (A) (A) (A) (A) (A) (A) (A) (A) (A)
                 (A) (A) (A) (A) (A) (A) (A) (A) (A) (A) (A) (A)
                 (A) (A) (A) (A) (A) (A) (A) (A) (A) (A) (A) (A)
                 (A) (A) (A) (A) (A) (A) (A) (A) (A) (A) (A) (A)
       Virtual   (A) (A) (A) (A) (A) (A) (A) (A) (A) (A) (A) (A)
                 (A) (A) (A) (A) (A) (A) (A) (A) (A) (A) (A) (A)
                 (A) (A) (A) (A) (A) (A) (A) (A) (A) (A) (A) (A)
                 (A) (A) (A) (A) (A) (A) (A) (A) (A) (A) (A) (A)
                 (A) (A) (A) (A) (A) (A) (A) (A) (A) (A) (A) (A)
                 (A) (A) (A) (A) (A) (A) (A) (A) (A) (A) (A) (A)
                 (A) (A) (A) (A) (A) (A) (A) (A) (A) (A) (A) (A)
                 (A) (A) (A) (A) (A) (A) (A) (A) (A) (A) (A) (A)
                 (A) (A) (A) (A) (A) (A) (A) (A) (A) (A) (A) (A)
                 (A) (A) (A) (A) (A) (A) (A) (A) (A) (A) (A) (A)
                 (A) (A) (A) (A) (A) (A) (A) (A) (A) (A) (A) (A)
                 (A) (A) (A) (A) (A) (A) (A) (A) (A) (A) (A) (A)
                 (A) (A) (A) (A) (A) (A) (A) (A) (A) (A) (A) (A)
 Harris functional with IExCor=  402 diagonalized for initial guess.
 ExpMin= 1.61D-01 ExpMax= 5.48D+03 ExpMxC= 8.25D+02 IAcc=1 IRadAn=         1 AccDes= 0.00D+00
 HarFok:  IExCor=  402 AccDes= 0.00D+00 IRadAn=         1 IDoV= 1
 ScaDFX=  1.000000  1.000000  1.000000  1.000000
 FoFCou: FMM=F IPFlag=           0 FMFlag=      100000 FMFlg1=           0
         NFxFlg=           0 DoJE=T BraDBF=F KetDBF=T FulRan=T
         Omega=  0.000000  0.000000  1.000000  0.000000  0.000000 ICntrl=     500 IOpCl=  0
         NMat0=    1 NMatS0=    1 NMatT0=    0 NMatD0=    1 NMtDS0=    0 NMtDT0=    0
         I1Cent=           4 NGrid=           0.
 Petite list used in FoFCou.
 Requested convergence on RMS density matrix=1.00D-08 within 128 cycles.
 Requested convergence on MAX density matrix=1.00D-06.
 Requested convergence on             energy=1.00D-06.
 No special actions if energy rises.
 Keep R1 ints in memory in canonical form, NReq=223281311.
 Integral accuracy reduced to 1.0D-05 until final iterations.
 Initial convergence to 1.0D-05 achieved.  Increase integral accuracy.
 SCF Done:  E(RB3LYP) =  -687.098324367     A.U. after   14 cycles
             Convg  =    0.8423D-08             -V/T =  2.0086
 Calling FoFJK, ICntrl=      2127 FMM=F ISym2X=0 I1Cent= 0 IOpClX= 0 NMat=1 NMatS=1 NMatT=0.
 ***** Axes restored to original set *****
 -------------------------------------------------------------------
 Center     Atomic                   Forces (Hartrees/Bohr)
 Number     Number              X              Y              Z
 -------------------------------------------------------------------
      1        6          -0.001885468    0.003871782    0.007931652
      2        8          -0.001256761    0.000563142   -0.003097659
      3        1           0.000014869   -0.000373883   -0.000875225
      4        1           0.005514509   -0.003960937   -0.007229745
      5        1           0.003295036   -0.001568784   -0.005272494
      6        6          -0.008415408    0.001823068    0.009533853
      7        8           0.004429606   -0.001463447   -0.008709614
      8        6          -0.002905352   -0.000635895   -0.008049399
      9        6           0.005239350   -0.004005263    0.007807033
     10        6           0.005915148   -0.001017960   -0.007868824
     11        6           0.000111946    0.001132125   -0.008436673
     12        1           0.000387085    0.000783946    0.003751924
     13        1           0.000033787    0.001309645    0.002698060
     14        8           0.000058157   -0.000659800    0.001396675
     15        1          -0.000917202   -0.000207634   -0.000223557
     16        1           0.004677207    0.002178364   -0.000771090
     17        8          -0.000856372   -0.002769296   -0.000767729
     18        1          -0.000007729   -0.000488379    0.003926844
     19        1          -0.003486227    0.003226443    0.002808091
     20        8          -0.001612604   -0.001037024    0.006512763
     21        1          -0.000337706    0.000214299   -0.000068406
     22        1          -0.005471914    0.002280534    0.004638413
     23        8          -0.005651395   -0.000708188    0.002818237
     24        1           0.003127437    0.001513142   -0.002453127
 -------------------------------------------------------------------
 Cartesian Forces:  Max     0.009533853 RMS     0.003935867

 GradGradGradGradGradGradGradGradGradGradGradGradGradGradGradGradGradGrad
 Berny optimization.
 Using GEDIIS/GDIIS optimizer.
 Internal  Forces:  Max     0.019092892 RMS     0.004113083
 Search for a local minimum.
 Step number   2 out of a maximum of  125
 All quantities printed in internal units (Hartrees-Bohrs-Radians)
 Mixed Optimization -- RFO/linear search
 Update second derivatives using D2CorX and points    1    2
 DE= -1.00D-02 DEPred=-2.81D-02 R= 3.58D-01
 Trust test= 3.58D-01 RLast= 4.36D-01 DXMaxT set to 3.00D-01
 ITU=  0  0
 Use linear search instead of GDIIS.
     Eigenvalues ---    0.00235   0.00299   0.00383   0.00401   0.00488
     Eigenvalues ---    0.00562   0.01326   0.01374   0.01381   0.01394
     Eigenvalues ---    0.01513   0.03788   0.04357   0.04543   0.04889
     Eigenvalues ---    0.04930   0.05241   0.05460   0.05849   0.06534
     Eigenvalues ---    0.06875   0.07433   0.07478   0.09026   0.10957
     Eigenvalues ---    0.11199   0.13540   0.13855   0.15984   0.16000
     Eigenvalues ---    0.16000   0.16000   0.16002   0.16494   0.16990
     Eigenvalues ---    0.19464   0.19677   0.19785   0.21765   0.22084
     Eigenvalues ---    0.22293   0.24723   0.28239   0.28613   0.29296
     Eigenvalues ---    0.29519   0.30678   0.33921   0.34106   0.34178
     Eigenvalues ---    0.34212   0.34229   0.34367   0.34510   0.40624
     Eigenvalues ---    0.41416   0.41829   0.42061   0.42747   0.45421
     Eigenvalues ---    0.52711   0.52853   0.52880   0.52902   0.53007
     Eigenvalues ---    0.88689
 RFO step:  Lambda=-6.57673513D-03 EMin= 2.34970864D-03
 Quartic linear search produced a step of -0.30874.
 Iteration  1 RMS(Cart)=  0.16690725 RMS(Int)=  0.00728449
 Iteration  2 RMS(Cart)=  0.01265320 RMS(Int)=  0.00069224
 Iteration  3 RMS(Cart)=  0.00004813 RMS(Int)=  0.00069149
 Iteration  4 RMS(Cart)=  0.00000002 RMS(Int)=  0.00069149
 Variable       Old X    -DE/DX   Delta X   Delta X   Delta X     New X
                                 (Linear)    (Quad)   (Total)
    R1        2.68055  -0.00353  -0.00290   0.00006  -0.00283   2.67771
    R2        2.06155   0.00721   0.00120   0.01200   0.01320   2.07475
    R3        2.08105   0.00223  -0.00527   0.01442   0.00916   2.09021
    R4        2.87632   0.00019  -0.00316   0.00635   0.00319   2.87950
    R5        1.83173  -0.00044   0.00185  -0.00423  -0.00237   1.82936
    R6        2.29893  -0.00812   0.00899  -0.02451  -0.01552   2.28342
    R7        2.93961  -0.00770  -0.01630   0.01273  -0.00357   2.93603
    R8        2.92462  -0.00970  -0.00666  -0.01049  -0.01715   2.90747
    R9        2.07386  -0.00045  -0.00127   0.00151   0.00024   2.07410
   R10        2.70346   0.00226  -0.00489   0.01315   0.00827   2.71173
   R11        2.89363   0.00425   0.00519   0.00050   0.00569   2.89932
   R12        2.07687   0.00115  -0.00078   0.00379   0.00300   2.07987
   R13        2.71816   0.00060  -0.00805   0.01660   0.00855   2.72671
   R14        2.88864   0.00026   0.00021   0.00021   0.00042   2.88906
   R15        2.07275  -0.00069  -0.00066  -0.00012  -0.00079   2.07196
   R16        2.69366   0.00199   0.00112   0.00112   0.00224   2.69590
   R17        2.07438   0.00014  -0.00155   0.00322   0.00167   2.07605
   R18        2.07934   0.00167  -0.00405   0.01102   0.00696   2.08630
   R19        2.70018  -0.00090  -0.00283   0.00402   0.00119   2.70137
   R20        1.83144  -0.00063   0.00186  -0.00451  -0.00264   1.82880
   R21        1.82883  -0.00167   0.00290  -0.00790  -0.00500   1.82383
   R22        1.82734  -0.00027   0.00289  -0.00606  -0.00317   1.82416
   R23        1.82969  -0.00195   0.00245  -0.00737  -0.00492   1.82476
    A1        1.92698   0.00434  -0.00988   0.04366   0.03381   1.96080
    A2        1.92349   0.00332  -0.00914   0.03720   0.02807   1.95156
    A3        1.89996  -0.00034   0.00834  -0.01094  -0.00257   1.89738
    A4        1.91711  -0.00344   0.00292  -0.03446  -0.03202   1.88509
    A5        1.89550  -0.00262   0.00461  -0.02231  -0.01790   1.87760
    A6        1.90028  -0.00140   0.00331  -0.01463  -0.01153   1.88875
    A7        1.87177  -0.00145   0.00137  -0.00834  -0.00697   1.86480
    A8        2.07337   0.01594   0.01377   0.01939   0.02965   2.10302
    A9        2.16241  -0.01909  -0.03686   0.01654  -0.02360   2.13882
   A10        2.04699   0.00318   0.02312  -0.03226  -0.01224   2.03475
   A11        2.14491  -0.01784  -0.03992  -0.00625  -0.04672   2.09819
   A12        1.80059   0.00674   0.01961  -0.00229   0.01659   1.81718
   A13        1.86859   0.00092   0.00748  -0.02662  -0.01878   1.84981
   A14        1.87290   0.00092   0.01728  -0.02006  -0.00385   1.86905
   A15        1.87074   0.01061   0.00582   0.01144   0.01680   1.88754
   A16        1.89529  -0.00046  -0.00864   0.05381   0.04553   1.94082
   A17        1.94544   0.00014   0.02165  -0.03184  -0.01025   1.93519
   A18        1.93415  -0.00180   0.00593  -0.03191  -0.02466   1.90949
   A19        1.93927  -0.00489  -0.03187   0.03097  -0.00020   1.93907
   A20        1.87593   0.00006   0.00045   0.01984   0.02051   1.89644
   A21        1.86152   0.00555   0.01744  -0.00101   0.01546   1.87698
   A22        1.90485   0.00138  -0.01470   0.01561   0.00097   1.90582
   A23        1.94663   0.00031   0.00169   0.00005   0.00171   1.94834
   A24        1.91326  -0.00263   0.00596  -0.02483  -0.01891   1.89434
   A25        1.90146   0.00103   0.00535  -0.00596  -0.00063   1.90083
   A26        1.82530   0.00383  -0.01563   0.04815   0.03258   1.85787
   A27        1.90718  -0.00115  -0.00476   0.00559   0.00087   1.90805
   A28        1.96988  -0.00135   0.00626  -0.02143  -0.01507   1.95481
   A29        1.91443  -0.00164   0.00774  -0.02184  -0.01414   1.90030
   A30        1.93458  -0.00182   0.00557  -0.01991  -0.01440   1.92018
   A31        1.86682  -0.00123   0.00999  -0.02139  -0.01140   1.85543
   A32        1.90620   0.00006   0.00148  -0.00387  -0.00242   1.90378
   A33        1.91989   0.00224  -0.01229   0.03311   0.02089   1.94077
   A34        1.92172   0.00239  -0.01319   0.03407   0.02090   1.94262
   A35        1.87082   0.00128  -0.00085   0.00675   0.00590   1.87672
   A36        1.88695  -0.00020  -0.00187   0.00227   0.00040   1.88736
   A37        1.89446  -0.00054  -0.00315   0.00295  -0.00020   1.89426
   A38        1.88772   0.00105  -0.00136   0.00665   0.00529   1.89301
    D1        1.05831   0.00035  -0.00343   0.00181  -0.00163   1.05669
    D2       -1.06270  -0.00040   0.00479  -0.00841  -0.00363  -1.06633
    D3        3.13752  -0.00046   0.00126  -0.00609  -0.00483   3.13269
    D4       -0.04137  -0.00058   0.00364  -0.01793  -0.01518  -0.05654
    D5        3.06829   0.00023   0.02152   0.12186   0.14429  -3.07060
    D6        2.05740   0.00292  -0.00059   0.01525   0.01354   2.07094
    D7       -1.11613   0.00373   0.01729   0.15504   0.17301  -0.94312
    D8       -2.13874  -0.00357   0.00775  -0.04785  -0.04078  -2.17953
    D9        0.97091  -0.00276   0.02563   0.09195   0.11869   1.08960
   D10       -0.02378  -0.00293  -0.00069  -0.10497  -0.10481  -0.12859
   D11       -2.13582   0.00158  -0.01321  -0.07144  -0.08383  -2.21965
   D12        2.14938  -0.00127  -0.01600  -0.12007  -0.13459   2.01479
   D13        3.08632  -0.00191   0.01706   0.03373   0.04954   3.13586
   D14        0.97428   0.00260   0.00454   0.06726   0.07052   1.04479
   D15       -1.02371  -0.00025   0.00175   0.01863   0.01976  -1.00394
   D16       -3.08111   0.00109  -0.02508  -0.11569  -0.14074   3.06133
   D17       -0.99262   0.00005  -0.00430  -0.13307  -0.13785  -1.13047
   D18        1.12835  -0.00277  -0.03867  -0.11398  -0.15332   0.97503
   D19       -1.00314  -0.00147  -0.01270  -0.14168  -0.15371  -1.15685
   D20        1.08534  -0.00250   0.00808  -0.15905  -0.15081   0.93453
   D21       -3.07688  -0.00533  -0.02629  -0.13996  -0.16628   3.04003
   D22        1.02988   0.00379  -0.01060  -0.08350  -0.09359   0.93629
   D23        3.11837   0.00276   0.01018  -0.10087  -0.09069   3.02768
   D24       -1.04385  -0.00006  -0.02419  -0.08179  -0.10616  -1.15001
   D25        1.91730   0.00537   0.02705  -0.05119  -0.02422   1.89308
   D26       -2.03420  -0.00899  -0.01387  -0.07006  -0.08429  -2.11850
   D27       -0.01602  -0.00261   0.00494  -0.06041  -0.05502  -0.07103
   D28        3.10367  -0.00119   0.01663  -0.03516  -0.01832   3.08535
   D29       -1.16643   0.00207   0.00207   0.00868   0.01093  -1.15551
   D30        0.99698  -0.00064   0.01793  -0.03821  -0.02007   0.97691
   D31        0.98104   0.00091  -0.00579   0.01077   0.00515   0.98619
   D32        2.99413   0.00418  -0.02035   0.05461   0.03439   3.02851
   D33       -1.12565   0.00146  -0.00449   0.00772   0.00339  -1.12226
   D34       -1.05995  -0.00353   0.00224  -0.01665  -0.01475  -1.07470
   D35        0.95314  -0.00026  -0.01232   0.02719   0.01449   0.96763
   D36        3.11655  -0.00297   0.00354  -0.01971  -0.01651   3.10004
   D37       -2.15371   0.00181   0.02425   0.01649   0.04167  -2.11204
   D38        2.00598   0.00098   0.00671   0.03783   0.04445   2.05043
   D39       -0.01571  -0.00274   0.00485   0.00732   0.01133  -0.00438
   D40        1.07553  -0.00225   0.00721  -0.04045  -0.03318   1.04235
   D41       -1.03080  -0.00009  -0.00379  -0.00853  -0.01232  -1.04312
   D42       -3.12598  -0.00119   0.00278  -0.02529  -0.02251   3.13469
   D43       -0.99098  -0.00154   0.00840  -0.03931  -0.03094  -1.02192
   D44       -3.09732   0.00063  -0.00259  -0.00740  -0.01007  -3.10739
   D45        1.09069  -0.00048   0.00397  -0.02416  -0.02026   1.07042
   D46       -3.10431  -0.00153   0.01178  -0.04415  -0.03229  -3.13660
   D47        1.07254   0.00064   0.00079  -0.01224  -0.01143   1.06111
   D48       -1.02264  -0.00046   0.00736  -0.02900  -0.02162  -1.04426
   D49       -2.18845  -0.00089   0.00197  -0.04754  -0.04553  -2.23398
   D50        1.96400  -0.00120  -0.00045  -0.04734  -0.04778   1.91622
[...]
                   16         17         18         19         20
    16  H    0.000000
    17  O    2.072025   0.000000
    18  H    2.240509   0.975756   0.000000
    19  H    2.261589   3.356897   3.440948   0.000000
    20  O    3.353398   3.236082   3.619779   2.077881   0.000000
    21  H    3.440839   3.597681   4.145402   2.277693   0.973907
    22  H    3.563142   2.677227   2.417501   3.041614   2.462644
    23  O    2.711872   2.755493   2.028212   2.771287   3.593706
    24  H    3.671016   3.572213   2.751084   3.536994   4.266897
                   21         22         23         24
    21  H    0.000000
    22  H    3.384937   0.000000
    23  O    4.300179   2.082297   0.000000
    24  H    5.059228   2.397295   0.974058   0.000000
 Stoichiometry    C6H12O6
 Framework group  C1[X(C6H12O6)]
 Deg. of freedom    66
 Full point group                 C1      NOp   1
 Largest Abelian subgroup         C1      NOp   1
 Largest concise Abelian subgroup C1      NOp   1
                         Standard orientation:                         
 ---------------------------------------------------------------------
 Center     Atomic      Atomic             Coordinates (Angstroms)
 Number     Number       Type             X           Y           Z
 ---------------------------------------------------------------------
      1          6           0        3.107891   -0.663433   -0.209213
      2          8           0        4.323582    0.040307   -0.105366
      3          1           0        5.010758   -0.508645   -0.510805
      4          1           0        3.092834   -1.592789    0.385024
      5          1           0        2.863854   -0.962036   -1.241784
      6          6           0        1.968688    0.221691    0.262519
      7          8           0        2.123119    1.395271    0.550151
      8          6           0        0.602764   -0.451863    0.385544
      9          6           0       -0.561791    0.575825    0.266973
     10          6           0       -1.851312   -0.128897   -0.159780
     11          6           0       -3.095356    0.718096    0.064636
     12          1           0       -3.051297    1.619772   -0.558275
     13          1           0       -3.152859    1.015799    1.122523
     14          8           0       -4.199251   -0.123638   -0.287181
     15          1           0       -5.018943    0.309405   -0.007930
     16          1           0        0.565354   -0.851178    1.414874
     17          8           0        0.541948   -1.519947   -0.546116
     18          1           0       -0.269186   -2.009219   -0.312078
     19          1           0       -0.700082    1.017414    1.267144
     20          8           0       -0.342708    1.589144   -0.698307
     21          1           0        0.445761    2.073239   -0.394230
     22          1           0       -1.765360   -0.348586   -1.232984
     23          8           0       -1.966552   -1.350263    0.581438
     24          1           0       -2.887238   -1.638687    0.447507
 ---------------------------------------------------------------------
 Rotational constants (GHZ):      2.3536792      0.4258376      0.3811580

 **********************************************************************

            Population analysis using the SCF density.

 **********************************************************************

 Orbital symmetries:
       Occupied  (A) (A) (A) (A) (A) (A) (A) (A) (A) (A) (A) (A)
                 (A) (A) (A) (A) (A) (A) (A) (A) (A) (A) (A) (A)
                 (A) (A) (A) (A) (A) (A) (A) (A) (A) (A) (A) (A)
                 (A) (A) (A) (A) (A) (A) (A) (A) (A) (A) (A) (A)
       Virtual   (A) (A) (A) (A) (A) (A) (A) (A) (A) (A) (A) (A)
                 (A) (A) (A) (A) (A) (A) (A) (A) (A) (A) (A) (A)
                 (A) (A) (A) (A) (A) (A) (A) (A) (A) (A) (A) (A)
                 (A) (A) (A) (A) (A) (A) (A) (A) (A) (A) (A) (A)
                 (A) (A) (A) (A) (A) (A) (A) (A) (A) (A) (A) (A)
                 (A) (A) (A) (A) (A) (A) (A) (A) (A) (A) (A) (A)
                 (A) (A) (A) (A) (A) (A) (A) (A) (A) (A) (A) (A)
                 (A) (A) (A) (A) (A) (A) (A) (A) (A) (A) (A) (A)
                 (A) (A) (A) (A) (A) (A) (A) (A) (A) (A) (A) (A)
                 (A) (A) (A) (A) (A) (A) (A) (A) (A) (A) (A) (A)
                 (A) (A) (A) (A) (A) (A) (A) (A) (A) (A) (A) (A)
                 (A) (A) (A) (A) (A) (A) (A) (A) (A) (A) (A) (A)
                 (A) (A) (A) (A) (A) (A) (A) (A) (A) (A) (A) (A)
 The electronic state is 1-A.
 Alpha  occ. eigenvalues --  -19.16595 -19.15997 -19.15043 -19.14881 -19.14755
 Alpha  occ. eigenvalues --  -19.13897 -10.28215 -10.24505 -10.24154 -10.24115
 Alpha  occ. eigenvalues --  -10.24095 -10.24055  -1.05856  -1.04831  -1.02905
 Alpha  occ. eigenvalues --   -1.02038  -1.01413  -1.01146  -0.77597  -0.75052
 Alpha  occ. eigenvalues --   -0.71211  -0.65626  -0.58599  -0.55028  -0.53622
 Alpha  occ. eigenvalues --   -0.52807  -0.51663  -0.50479  -0.49473  -0.48073
 Alpha  occ. eigenvalues --   -0.46223  -0.45314  -0.44133  -0.43171  -0.40763
 Alpha  occ. eigenvalues --   -0.39587  -0.38015  -0.36779  -0.35731  -0.35456
 Alpha  occ. eigenvalues --   -0.34425  -0.33245  -0.29328  -0.28930  -0.28262
 Alpha  occ. eigenvalues --   -0.27371  -0.25940  -0.24820
 Alpha virt. eigenvalues --   -0.02450   0.04758   0.06806   0.09182   0.09475
 Alpha virt. eigenvalues --    0.12749   0.13379   0.13851   0.15158   0.15605
 Alpha virt. eigenvalues --    0.16785   0.17383   0.17815   0.18645   0.20564
 Alpha virt. eigenvalues --    0.20805   0.22249   0.23771   0.24477   0.28027
 Alpha virt. eigenvalues --    0.29971   0.32025   0.34523   0.39908   0.52458
 Alpha virt. eigenvalues --    0.54173   0.55052   0.55330   0.56646   0.57659
 Alpha virt. eigenvalues --    0.58747   0.61297   0.62645   0.64464   0.65727
 Alpha virt. eigenvalues --    0.66224   0.67602   0.69827   0.72340   0.74751
 Alpha virt. eigenvalues --    0.76305   0.78763   0.79434   0.80702   0.80984
 Alpha virt. eigenvalues --    0.82263   0.82643   0.83454   0.84419   0.86368
 Alpha virt. eigenvalues --    0.87036   0.88823   0.90554   0.90831   0.93373
 Alpha virt. eigenvalues --    0.94434   0.95012   0.96574   0.97979   0.99449
 Alpha virt. eigenvalues --    1.00316   1.03003   1.04806   1.07026   1.08126
 Alpha virt. eigenvalues --    1.08625   1.09982   1.14087   1.17141   1.18933
 Alpha virt. eigenvalues --    1.21776   1.23760   1.28024   1.30429   1.33313
 Alpha virt. eigenvalues --    1.35773   1.36490   1.37410   1.42666   1.45003
 Alpha virt. eigenvalues --    1.47159   1.49146   1.55424   1.58652   1.61288
 Alpha virt. eigenvalues --    1.62282   1.65395   1.66298   1.67500   1.70642
 Alpha virt. eigenvalues --    1.71507   1.72658   1.73709   1.76515   1.79053
 Alpha virt. eigenvalues --    1.80082   1.80598   1.80948   1.83374   1.85630
 Alpha virt. eigenvalues --    1.88831   1.91923   1.93616   1.94750   1.96424
 Alpha virt. eigenvalues --    2.01073   2.01637   2.03200   2.05594   2.07011
 Alpha virt. eigenvalues --    2.08323   2.11413   2.12634   2.15959   2.16455
 Alpha virt. eigenvalues --    2.18474   2.22151   2.28759   2.32674   2.35429
 Alpha virt. eigenvalues --    2.36472   2.38093   2.41064   2.42201   2.46276
 Alpha virt. eigenvalues --    2.47138   2.47409   2.48680   2.52808   2.55046
 Alpha virt. eigenvalues --    2.56588   2.60016   2.62680   2.66147   2.70279
 Alpha virt. eigenvalues --    2.74641   2.82259   2.84890   2.89024   2.91554
 Alpha virt. eigenvalues --    2.92370   2.95982   3.02293   3.08412   3.75359
 Alpha virt. eigenvalues --    3.77451   3.79025   3.90693   3.95348   4.04958
 Alpha virt. eigenvalues --    4.20276   4.26481   4.35180   4.46507   4.54893
 Alpha virt. eigenvalues --    4.71383
          Condensed to atoms (all electrons):
              1          2          3          4          5          6
     1  C    5.068878   0.246387  -0.024261   0.357872   0.348965   0.286450
     2  O    0.246387   8.217956   0.235295  -0.038313  -0.033161  -0.036083
     3  H   -0.024261   0.235295   0.391372  -0.002676  -0.005155   0.006445
     4  H    0.357872  -0.038313  -0.002676   0.611855  -0.047498  -0.045062
     5  H    0.348965  -0.033161  -0.005155  -0.047498   0.579275  -0.025932
     6  C    0.286450  -0.036083   0.006445  -0.045062  -0.025932   4.657567
     7  O   -0.072256   0.002059   0.000168   0.001018  -0.000300   0.538983
     8  C   -0.120195   0.002093  -0.000232   0.011132   0.001053   0.276659
     9  C    0.006970  -0.000011   0.000003   0.000242  -0.000626  -0.031513
    10  C   -0.000042   0.000000   0.000000  -0.000009   0.000017   0.002486
    11  C    0.000000   0.000000   0.000000   0.000000   0.000000  -0.000038
    12  H    0.000000   0.000000   0.000000   0.000000   0.000000   0.000003
    13  H    0.000000   0.000000   0.000000   0.000000   0.000000  -0.000001
    14  O    0.000000   0.000000   0.000000   0.000000   0.000000   0.000000
    15  H    0.000000   0.000000   0.000000   0.000000   0.000000   0.000000
    16  H    0.000752  -0.000033   0.000001  -0.000701   0.000763  -0.037623
    17  O    0.008470   0.000137   0.000010   0.000533   0.006085  -0.037916
    18  H   -0.000447  -0.000001   0.000000  -0.000041   0.000083   0.004328
    19  H   -0.000125   0.000000   0.000000  -0.000016   0.000002   0.001085
    20  O   -0.000253   0.000000   0.000000  -0.000007   0.000156   0.006025
    21  H    0.000968  -0.000006   0.000000  -0.000005  -0.000123  -0.000350
    22  H   -0.000028   0.000000   0.000000   0.000000   0.000004   0.000125
    23  O    0.000005   0.000000   0.000000   0.000001   0.000000   0.000252
    24  H    0.000000   0.000000   0.000000   0.000000   0.000000   0.000000
              7          8          9         10         11         12
     1  C   -0.072256  -0.120195   0.006970  -0.000042   0.000000   0.000000
     2  O    0.002059   0.002093  -0.000011   0.000000   0.000000   0.000000
     3  H    0.000168  -0.000232   0.000003   0.000000   0.000000   0.000000
     4  H    0.001018   0.011132   0.000242  -0.000009   0.000000   0.000000
     5  H   -0.000300   0.001053  -0.000626   0.000017   0.000000   0.000000
     6  C    0.538983   0.276659  -0.031513   0.002486  -0.000038   0.000003
     7  O    8.037012  -0.077276   0.009288   0.000424  -0.000001   0.000000
     8  C   -0.077276   5.222619   0.255417  -0.037165   0.005513   0.000099
     9  C    0.009288   0.255417   4.971067   0.326161  -0.028802  -0.002706
    10  C    0.000424  -0.037165   0.326161   4.909837   0.354568  -0.033582
    11  C   -0.000001   0.005513  -0.028802   0.354568   4.910198   0.354278
    12  H    0.000000   0.000099  -0.002706  -0.033582   0.354278   0.595728
    13  H    0.000000  -0.000164  -0.004868  -0.033781   0.349599  -0.046387
    14  O    0.000000  -0.000038   0.002220  -0.048231   0.234834  -0.036555
    15  H    0.000000   0.000004  -0.000217   0.005871  -0.020691  -0.001461
    16  H   -0.000002   0.333212  -0.045900   0.000524   0.000129  -0.000012
    17  O    0.001171   0.215990  -0.051072   0.007408   0.000402   0.000000
    18  H   -0.000118  -0.020336  -0.004086  -0.002868   0.000527  -0.000041
    19  H    0.001194  -0.056851   0.341244  -0.046047  -0.011167   0.000222
    20  O   -0.015166  -0.043006   0.239119  -0.045622  -0.000945   0.007241
    21  H    0.034083  -0.009062  -0.023307   0.006430  -0.000002  -0.000090
    22  H   -0.000002  -0.009241  -0.050177   0.355351  -0.048022  -0.002101
    23  O   -0.000001   0.002155  -0.038720   0.196423  -0.030390   0.003548
    24  H    0.000000  -0.000227   0.006624  -0.032325  -0.012469   0.000966
             13         14         15         16         17         18
     1  C    0.000000   0.000000   0.000000   0.000752   0.008470  -0.000447
     2  O    0.000000   0.000000   0.000000  -0.000033   0.000137  -0.000001
     3  H    0.000000   0.000000   0.000000   0.000001   0.000010   0.000000
     4  H    0.000000   0.000000   0.000000  -0.000701   0.000533  -0.000041
     5  H    0.000000   0.000000   0.000000   0.000763   0.006085   0.000083
     6  C   -0.000001   0.000000   0.000000  -0.037623  -0.037916   0.004328
     7  O    0.000000   0.000000   0.000000  -0.000002   0.001171  -0.000118
     8  C   -0.000164  -0.000038   0.000004   0.333212   0.215990  -0.020336
     9  C   -0.004868   0.002220  -0.000217  -0.045900  -0.051072  -0.004086
    10  C   -0.033781  -0.048231   0.005871   0.000524   0.007408  -0.002868
    11  C    0.349599   0.234834  -0.020691   0.000129   0.000402   0.000527
    12  H   -0.046387  -0.036555  -0.001461  -0.000012   0.000000  -0.000041
    13  H    0.636837  -0.038235  -0.005439  -0.000010   0.000001  -0.000014
    14  O   -0.038235   8.264481   0.236836   0.000000  -0.000001   0.000003
    15  H   -0.005439   0.236836   0.381244   0.000000   0.000000   0.000000
    16  H   -0.000010   0.000000   0.000000   0.621475  -0.034216  -0.007136
    17  O    0.000001  -0.000001   0.000000  -0.034216   8.313924   0.224494
    18  H   -0.000014   0.000003   0.000000  -0.007136   0.224494   0.347580
    19  H    0.007346  -0.000025  -0.000008   0.004098   0.003587  -0.000194
    20  O    0.000142   0.000014   0.000003   0.003193   0.001030   0.000009
    21  H   -0.000033   0.000001   0.000000   0.000273   0.000098  -0.000036
    22  H    0.006884   0.000909  -0.000206   0.000708   0.008991  -0.003313
    23  O   -0.000739  -0.009090   0.000391   0.003205  -0.015604   0.039343
    24  H   -0.000368   0.033287  -0.001435  -0.000071   0.000344  -0.000825
             19         20         21         22         23         24
     1  C   -0.000125  -0.000253   0.000968  -0.000028   0.000005   0.000000
     2  O    0.000000   0.000000  -0.000006   0.000000   0.000000   0.000000
     3  H    0.000000   0.000000   0.000000   0.000000   0.000000   0.000000
     4  H   -0.000016  -0.000007  -0.000005   0.000000   0.000001   0.000000
     5  H    0.000002   0.000156  -0.000123   0.000004   0.000000   0.000000
     6  C    0.001085   0.006025  -0.000350   0.000125   0.000252   0.000000
     7  O    0.001194  -0.015166   0.034083  -0.000002  -0.000001   0.000000
     8  C   -0.056851  -0.043006  -0.009062  -0.009241   0.002155  -0.000227
     9  C    0.341244   0.239119  -0.023307  -0.050177  -0.038720   0.006624
    10  C   -0.046047  -0.045622   0.006430   0.355351   0.196423  -0.032325
    11  C   -0.011167  -0.000945  -0.000002  -0.048022  -0.030390  -0.012469
    12  H    0.000222   0.007241  -0.000090  -0.002101   0.003548   0.000966
    13  H    0.007346   0.000142  -0.000033   0.006884  -0.000739  -0.000368
    14  O   -0.000025   0.000014   0.000001   0.000909  -0.009090   0.033287
    15  H   -0.000008   0.000003   0.000000  -0.000206   0.000391  -0.001435
    16  H    0.004098   0.003193   0.000273   0.000708   0.003205  -0.000071
    17  O    0.003587   0.001030   0.000098   0.008991  -0.015604   0.000344
    18  H   -0.000194   0.000009  -0.000036  -0.003313   0.039343  -0.000825
    19  H    0.669347  -0.039555  -0.004643   0.007713   0.002573  -0.000229
    20  O   -0.039555   8.303667   0.229082   0.005826   0.001094  -0.000104
    21  H   -0.004643   0.229082   0.345287  -0.000198  -0.000101   0.000009
    22  H    0.007713   0.005826  -0.000198   0.611883  -0.041155  -0.001126
    23  O    0.002573   0.001094  -0.000101  -0.041155   8.326306   0.233505
    24  H   -0.000229  -0.000104   0.000009  -0.001126   0.233505   0.354858
 Mulliken atomic charges:
              1
     1  C   -0.108111
     2  O   -0.596321
     3  H    0.399030
     4  H    0.151674
     5  H    0.176391
     6  C    0.434112
     7  O   -0.460280
     8  C    0.047847
     9  C    0.123651
    10  C    0.114172
    11  C   -0.057522
    12  H    0.160850
    13  H    0.129229
    14  O   -0.640410
    15  H    0.405106
    16  H    0.157371
    17  O   -0.653868
    18  H    0.423088
    19  H    0.120449
    20  O   -0.651944
    21  H    0.421726
    22  H    0.157176
    23  O   -0.673002
    24  H    0.419585
 Sum of Mulliken atomic charges =   0.00000
 Mulliken charges with hydrogens summed into heavy atoms:
              1
     1  C    0.219954
     2  O   -0.197291
     6  C    0.434112
     7  O   -0.460280
     8  C    0.205218
     9  C    0.244100
    10  C    0.271349
    11  C    0.232557
    14  O   -0.235303
    17  O   -0.230780
    20  O   -0.230217
    23  O   -0.253418
 Sum of Mulliken charges with hydrogens summed into heavy atoms =   0.00000
 Electronic spatial extent (au):  <R**2>=           2809.5293
 Charge=              0.0000 electrons
 Dipole moment (field-independent basis, Debye):
    X=             -2.5172    Y=             -1.8865    Z=              0.7984  Tot=              3.2454
 Quadrupole moment (field-independent basis, Debye-Ang):
   XX=            -52.2476   YY=            -70.5711   ZZ=            -71.8201
   XY=            -12.1456   XZ=             -7.7718   YZ=              0.3230
 Traceless Quadrupole moment (field-independent basis, Debye-Ang):
   XX=             12.6320   YY=             -5.6915   ZZ=             -6.9405
   XY=            -12.1456   XZ=             -7.7718   YZ=              0.3230
 Octapole moment (field-independent basis, Debye-Ang**2):
  XXX=            -48.0310  YYY=             -6.7806  ZZZ=             -0.7734  XYY=             -9.7734
  XXY=            -25.6319  XXZ=            -10.6638  XZZ=              5.3349  YZZ=             -1.4464
  YYZ=             -0.7679  XYZ=             -3.5948
 Hexadecapole moment (field-independent basis, Debye-Ang**3):
 XXXX=          -1928.1777 YYYY=           -438.6590 ZZZZ=           -160.3315 XXXY=           -248.3720
 XXXZ=           -186.1675 YYYX=             31.9720 YYYZ=             -5.0383 ZZZX=             -3.5891
 ZZZY=              1.6288 XXYY=           -501.7249 XXZZ=           -474.5774 YYZZ=           -108.2345
 XXYZ=              2.6188 YYXZ=             -5.7611 ZZXY=              0.2987
 N-N= 7.846666314427D+02 E-N=-3.181253233435D+03  KE= 6.812485937408D+02

 Test job not archived.
 1\1\GINC-TERMINUS\FOpt\RB3LYP\6-31G(d)\C6H12O6\FRODOX\04-Jan-2018\0\\#
 B3LYP/6-31G* fopt test\\Sugars/R-S-S-Fructuose.xyz\\0,1\C,-0.960268783
 5,-0.5383267718,0.5391820276\O,-0.4584849427,-0.130761441,1.7905986049
 \H,-0.7989112316,-0.7491098825,2.4536936933\H,-2.0561273061,-0.4400682
 009,0.4586472181\H,-0.7336941285,-1.5902261893,0.3002410983\C,-0.32555
 63322,0.2974925399,-0.5573140126\O,0.5713997204,1.0931586525,-0.342245
 5078\C,-0.8961858752,0.106270226,-1.9617269864\C,0.1384949917,0.484457
 9317,-3.0629985305\C,-0.2107895677,-0.2094272966,-4.3813838913\C,0.510
 5463885,0.3902170944,-5.5795102092\H,1.5933757054,0.2535221581,-5.4710
 036508\H,0.2896848726,1.4664870961,-5.6421335675\O,-0.0057815584,-0.30
 1873042,-6.7220039946\H,0.2982222066,0.1520603118,-7.5213336779\H,-1.7
 221290993,0.8353175069,-2.0434661061\O,-1.408387316,-1.2127151636,-2.0
 638108945\H,-1.9005344809,-1.2246852649,-2.906275705\H,0.0764984143,1.
 5765712531,-3.1968384768\O,1.4674940183,0.0942419168,-2.7662334039\H,1
 .7082587533,0.5813378583,-1.9579859881\H,0.0844830642,-1.2634939894,-4
 .2855908624\O,-1.6268939151,-0.1148026213,-4.5816643157\H,-1.764933598
 2,-0.3596276824,-5.514291861\\Version=EM64L-G09RevB.01\State=1-A\HF=-6
 87.1340553\RMSD=3.777e-09\RMSF=7.659e-06\Dipole=-0.7421847,-0.0563084,
 -1.0374639\Quadrupole=-3.9327803,-4.6211124,8.5538927,1.1253492,-6.135
 2773,-9.3513629\PG=C01 [X(C6H12O6)]\\@


 "ANNA, YOU MUSN'T SPEAK OF OXIDIZED MURIATIC ACID
 ANYMORE, FROM NOW ON YOU MUST SAY CHLORINE."
   -- JENS JACOB BERZELIUS, IN 1820, TO HIS COOK, WHO HAD
 COMPLAINED OF THE SMELL OF THE FLASK SHE WAS CLEANING.
 Job cpu time:  0 days  0 hours 53 minutes 57.0 seconds.
 File lengths (MBytes):  RWF=     27 Int=      0 D2E=      0 Chk=      4 Scr=      1
 Normal termination of Gaussian 09 at Thu Jan  4 16:39:35 2018.
