 Entering Gaussian System, Link 0=g09
 Input=R-S-R-Fructuose.inp
 Output=R-S-R-Fructuose.log
 Initial command:
 /usr/local/g09/l1.exe /home/g09scr/Gau-3904.inp -scrdir=/home/g09scr/
 Entering Link 1 = /usr/local/g09/l1.exe PID=      3906.
  
 Copyright (c) 1988,1990,1992,1993,1995,1998,2003,2009,2010,
            Gaussian, Inc.  All Rights Reserved.
  
 This is part of the Gaussian(R) 09 program.  It is based on
 the Gaussian(R) 03 system (copyright 2003, Gaussian, Inc.),
 the Gaussian(R) 98 system (copyright 1998, Gaussian, Inc.),
 the Gaussian(R) 94 system (copyright 1995, Gaussian, Inc.),
 the Gaussian 92(TM) system (copyright 1992, Gaussian, Inc.),
 the Gaussian 90(TM) system (copyright 1990, Gaussian, Inc.),
 the Gaussian 88(TM) system (copyright 1988, Gaussian, Inc.),
 the Gaussian 86(TM) system (copyright 1986, Carnegie Mellon
 University), and the Gaussian 82(TM) system (copyright 1983,
 Carnegie Mellon University). Gaussian is a federally registered
 trademark of Gaussian, Inc.
  
 This software contains proprietary and confidential information,
 including trade secrets, belonging to Gaussian, Inc.
  
 This software is provided under written license and may be
 used, copied, transmitted, or stored only in accord with that
 written license.
  
 The following legend is applicable only to US Government
 contracts under FAR:
  
                    RESTRICTED RIGHTS LEGEND
  
 Use, reproduction and disclosure by the US Government is
 subject to restrictions as set forth in subparagraphs (a)
 and (c) of the Commercial Computer Software - Restricted
 Rights clause in FAR 52.227-19.
  
 Gaussian, Inc.
 340 Quinnipiac St., Bldg. 40, Wallingford CT 06492
  
  
 ---------------------------------------------------------------
 Warning -- This program may not be used in any manner that
 competes with the business of Gaussian, Inc. or will provide
 assistance to any competitor of Gaussian, Inc.  The licensee
 of this program is prohibited from giving any competitor of
 Gaussian, Inc. access to this program.  By using this program,
 the user acknowledges that Gaussian, Inc. is engaged in the
 business of creating and licensing software in the field of
 computational chemistry and represents and warrants to the
 licensee that it is not a competitor of Gaussian, Inc. and that
 it will not use this program in any manner prohibited above.
 ---------------------------------------------------------------
  

 Cite this work as:
 Gaussian 09, Revision B.01,
 M. J. Frisch, G. W. Trucks, H. B. Schlegel, G. E. Scuseria, 
 M. A. Robb, J. R. Cheeseman, G. Scalmani, V. Barone, B. Mennucci, 
 G. A. Petersson, H. Nakatsuji, M. Caricato, X. Li, H. P. Hratchian, 
 A. F. Izmaylov, J. Bloino, G. Zheng, J. L. Sonnenberg, M. Hada, 
 M. Ehara, K. Toyota, R. Fukuda, J. Hasegawa, M. Ishida, T. Nakajima, 
 Y. Honda, O. Kitao, H. Nakai, T. Vreven, J. A. Montgomery, Jr., 
 J. E. Peralta, F. Ogliaro, M. Bearpark, J. J. Heyd, E. Brothers, 
 K. N. Kudin, V. N. Staroverov, T. Keith, R. Kobayashi, J. Normand, 
 K. Raghavachari, A. Rendell, J. C. Burant, S. S. Iyengar, J. Tomasi, 
 M. Cossi, N. Rega, J. M. Millam, M. Klene, J. E. Knox, J. B. Cross, 
 V. Bakken, C. Adamo, J. Jaramillo, R. Gomperts, R. E. Stratmann, 
 O. Yazyev, A. J. Austin, R. Cammi, C. Pomelli, J. W. Ochterski, 
 R. L. Martin, K. Morokuma, V. G. Zakrzewski, G. A. Voth, 
 P. Salvador, J. J. Dannenberg, S. Dapprich, A. D. Daniels, 
 O. Farkas, J. B. Foresman, J. V. Ortiz, J. Cioslowski, 
 and D. J. Fox, Gaussian, Inc., Wallingford CT, 2010.
 
 ******************************************
 Gaussian 09:  EM64L-G09RevB.01 12-Aug-2010
                 4-Jan-2018 
 ******************************************
 %nproc=4
 Will use up to    4 processors via shared memory.
 %mem=60gb
 -----------------------
 #B3LYP/6-31G* fopt test
 -----------------------
 1/14=-1,18=20,19=15,26=3,38=1/1,3;
 2/9=110,12=2,14=103,17=6,18=5,40=1/2;
 3/5=1,6=6,7=1,11=2,16=1,25=1,30=1,71=1,74=-5/1,2,3;
 4//1;
 5/5=2,38=5/2;
 6/7=2,8=2,9=2,10=2,28=1/1;
 7//1,2,3,16;
 1/14=-1,18=20,19=15/3(2);
 2/9=110/2;
 99//99;
 2/9=110/2;
 3/5=1,6=6,7=1,11=2,16=1,25=1,30=1,71=1,74=-5/1,2,3;
 4/5=5,16=3/1;
 5/5=2,38=5/2;
 7//1,2,3,16;
 1/14=-1,18=20,19=15/3(-5);
 2/9=110/2;
 6/7=2,8=2,9=2,10=2,19=2,28=1/1;
 99/9=1/99;
 --------------------------
 Sugars/R-S-R-Fructuose.xyz
 --------------------------
 Symbolic Z-matrix:
 Charge =  0 Multiplicity = 1
 C                     0.        0.        0. 
 O                     0.        0.        1.41352 
 H                     0.92749   0.        1.70592 
 H                     0.51803  -0.89725  -0.34815 
 H                     0.51786   0.89695  -0.34677 
 C                    -1.42147   0.       -0.52884 
 O                    -2.38889  -0.0311    0.23329 
 C                    -1.59838   0.00492  -2.04619 
 C                    -0.29803   0.04539  -2.86317 
 C                    -0.4755    0.02154  -4.39287 
 C                     0.86828   0.04202  -5.12195 
 H                     1.4567   -0.85196  -4.89019 
 H                     1.45026   0.93508  -4.87855 
 O                     0.62907   0.0516   -6.5257 
 H                     1.49772   0.05882  -6.96259 
 H                    -2.23088   0.86564  -2.28847 
 O                    -2.32272  -1.16099  -2.41868 
 H                    -3.17739  -0.87514  -2.78481 
 H                     0.31509   0.92124  -2.6144 
 O                     0.44258  -1.09678  -2.44321 
 H                     1.27832  -0.78635  -2.05615 
 H                    -1.05584   0.88784  -4.72949 
 O                    -1.01692  -1.23465  -4.80051 
 H                    -1.82339  -1.05983  -5.31495 
 

 GradGradGradGradGradGradGradGradGradGradGradGradGradGradGradGradGradGrad
 Berny optimization.
 Initialization pass.
                           ----------------------------
                           !    Initial Parameters    !
                           ! (Angstroms and Degrees)  !
 --------------------------                            --------------------------
 ! Name  Definition              Value          Derivative Info.                !
 --------------------------------------------------------------------------------
 ! R1    R(1,2)                  1.4135         estimate D2E/DX2                !
 ! R2    R(1,4)                  1.093          estimate D2E/DX2                !
 ! R3    R(1,5)                  1.0922         estimate D2E/DX2                !
 ! R4    R(1,6)                  1.5167         estimate D2E/DX2                !
 ! R5    R(2,3)                  0.9725         estimate D2E/DX2                !
 ! R6    R(6,7)                  1.232          estimate D2E/DX2                !
 ! R7    R(6,8)                  1.5276         estimate D2E/DX2                !
 ! R8    R(8,9)                  1.5362         estimate D2E/DX2                !
 ! R9    R(8,16)                 1.0953         estimate D2E/DX2                !
 ! R10   R(8,17)                 1.4222         estimate D2E/DX2                !
 ! R11   R(9,10)                 1.5401         estimate D2E/DX2                !
 ! R12   R(9,19)                 1.0977         estimate D2E/DX2                !
 ! R13   R(9,20)                 1.4246         estimate D2E/DX2                !
 ! R14   R(10,11)                1.529          estimate D2E/DX2                !
 ! R15   R(10,22)                1.0957         estimate D2E/DX2                !
 ! R16   R(10,23)                1.4273         estimate D2E/DX2                !
 ! R17   R(11,12)                1.0951         estimate D2E/DX2                !
 ! R18   R(11,13)                1.0934         estimate D2E/DX2                !
 ! R19   R(11,14)                1.424          estimate D2E/DX2                !
 ! R20   R(14,15)                0.9724         estimate D2E/DX2                !
 ! R21   R(17,18)                0.9727         estimate D2E/DX2                !
 ! R22   R(20,21)                0.9719         estimate D2E/DX2                !
 ! R23   R(23,24)                0.9724         estimate D2E/DX2                !
 ! A1    A(2,1,4)              108.574          estimate D2E/DX2                !
 ! A2    A(2,1,5)              108.511          estimate D2E/DX2                !
 ! A3    A(2,1,6)              110.407          estimate D2E/DX2                !
 ! A4    A(4,1,5)              110.3838         estimate D2E/DX2                !
 ! A5    A(4,1,6)              109.4597         estimate D2E/DX2                !
 ! A6    A(5,1,6)              109.4917         estimate D2E/DX2                !
 ! A7    A(1,2,3)              107.498          estimate D2E/DX2                !
 ! A8    A(1,6,7)              121.351          estimate D2E/DX2                !
 ! A9    A(1,6,8)              117.057          estimate D2E/DX2                !
 ! A10   A(7,6,8)              121.5748         estimate D2E/DX2                !
 ! A11   A(6,8,9)              115.486          estimate D2E/DX2                !
 ! A12   A(6,8,16)             106.8055         estimate D2E/DX2                !
 ! A13   A(6,8,17)             108.4505         estimate D2E/DX2                !
 ! A14   A(9,8,16)             110.516          estimate D2E/DX2                !
 ! A15   A(9,8,17)             108.265          estimate D2E/DX2                !
 ! A16   A(16,8,17)            106.9882         estimate D2E/DX2                !
 ! A17   A(8,9,10)             115.484          estimate D2E/DX2                !
 ! A18   A(8,9,19)             111.9187         estimate D2E/DX2                !
 ! A19   A(8,9,20)             105.1981         estimate D2E/DX2                !
 ! A20   A(10,9,19)            107.567          estimate D2E/DX2                !
 ! A21   A(10,9,20)            109.894          estimate D2E/DX2                !
 ! A22   A(19,9,20)            106.4113         estimate D2E/DX2                !
 ! A23   A(9,10,11)            111.847          estimate D2E/DX2                !
 ! A24   A(9,10,22)            110.727          estimate D2E/DX2                !
 ! A25   A(9,10,23)            109.938          estimate D2E/DX2                !
 ! A26   A(11,10,22)           107.9636         estimate D2E/DX2                !
 ! A27   A(11,10,23)           102.0626         estimate D2E/DX2                !
 ! A28   A(22,10,23)           114.0276         estimate D2E/DX2                !
 ! A29   A(10,11,12)           111.125          estimate D2E/DX2                !
 ! A30   A(10,11,13)           111.8759         estimate D2E/DX2                !
 ! A31   A(10,11,14)           108.815          estimate D2E/DX2                !
 ! A32   A(12,11,13)           109.4922         estimate D2E/DX2                !
 ! A33   A(12,11,14)           107.7211         estimate D2E/DX2                !
 ! A34   A(13,11,14)           107.6593         estimate D2E/DX2                !
 ! A35   A(11,14,15)           107.0319         estimate D2E/DX2                !
 ! A36   A(8,17,18)            107.768          estimate D2E/DX2                !
 ! A37   A(9,20,21)            107.96           estimate D2E/DX2                !
 ! A38   A(10,23,24)           107.906          estimate D2E/DX2                !
 ! D1    D(4,1,2,3)             60.0            estimate D2E/DX2                !
 ! D2    D(5,1,2,3)            -60.0            estimate D2E/DX2                !
 ! D3    D(6,1,2,3)            180.0            estimate D2E/DX2                !
 ! D4    D(2,1,6,7)             -1.694          estimate D2E/DX2                !
 ! D5    D(2,1,6,8)            179.793          estimate D2E/DX2                !
 ! D6    D(4,1,6,7)            117.7715         estimate D2E/DX2                !
 ! D7    D(4,1,6,8)            -60.7415         estimate D2E/DX2                !
 ! D8    D(5,1,6,7)           -121.102          estimate D2E/DX2                !
 ! D9    D(5,1,6,8)             60.385          estimate D2E/DX2                !
 ! D10   D(1,6,8,9)             -1.4906         estimate D2E/DX2                !
 ! D11   D(1,6,8,16)          -124.8258         estimate D2E/DX2                !
 ! D12   D(1,6,8,17)           120.1809         estimate D2E/DX2                !
 ! D13   D(7,6,8,9)            180.0            estimate D2E/DX2                !
 ! D14   D(7,6,8,16)            56.6647         estimate D2E/DX2                !
 ! D15   D(7,6,8,17)           -58.3286         estimate D2E/DX2                !
 ! D16   D(6,8,9,10)           178.812          estimate D2E/DX2                !
 ! D17   D(6,8,9,19)           -57.6707         estimate D2E/DX2                !
 ! D18   D(6,8,9,20)            57.4731         estimate D2E/DX2                !
 ! D19   D(16,8,9,10)          -59.8319         estimate D2E/DX2                !
 ! D20   D(16,8,9,19)           63.6854         estimate D2E/DX2                !
 ! D21   D(16,8,9,20)          178.8291         estimate D2E/DX2                !
 ! D22   D(17,8,9,10)           57.041          estimate D2E/DX2                !
 ! D23   D(17,8,9,19)         -179.4417         estimate D2E/DX2                !
 ! D24   D(17,8,9,20)          -64.298          estimate D2E/DX2                !
 ! D25   D(6,8,17,18)          114.8739         estimate D2E/DX2                !
 ! D26   D(9,8,17,18)         -119.126          estimate D2E/DX2                !
 ! D27   D(16,8,17,18)          -0.0001         estimate D2E/DX2                !
 ! D28   D(8,9,10,11)         -179.087          estimate D2E/DX2                !
 ! D29   D(8,9,10,22)           60.4499         estimate D2E/DX2                !
 ! D30   D(8,9,10,23)          -66.447          estimate D2E/DX2                !
 ! D31   D(19,9,10,11)          55.1349         estimate D2E/DX2                !
 ! D32   D(19,9,10,22)         -65.3281         estimate D2E/DX2                !
 ! D33   D(19,9,10,23)         167.775          estimate D2E/DX2                !
 ! D34   D(20,9,10,11)         -60.315          estimate D2E/DX2                !
 ! D35   D(20,9,10,22)         179.2219         estimate D2E/DX2                !
 ! D36   D(20,9,10,23)          52.325          estimate D2E/DX2                !
 ! D37   D(8,9,20,21)         -118.8985         estimate D2E/DX2                !
 ! D38   D(10,9,20,21)         116.1799         estimate D2E/DX2                !
 ! D39   D(19,9,20,21)           0.0            estimate D2E/DX2                !
 ! D40   D(9,10,11,12)          62.961          estimate D2E/DX2                !
 ! D41   D(9,10,11,13)         -59.764          estimate D2E/DX2                !
 ! D42   D(9,10,11,14)        -178.59           estimate D2E/DX2                !
 ! D43   D(22,10,11,12)       -174.9777         estimate D2E/DX2                !
 ! D44   D(22,10,11,13)         62.2974         estimate D2E/DX2                !
 ! D45   D(22,10,11,14)        -56.5287         estimate D2E/DX2                !
 ! D46   D(23,10,11,12)        -54.514          estimate D2E/DX2                !
 ! D47   D(23,10,11,13)       -177.2389         estimate D2E/DX2                !
 ! D48   D(23,10,11,14)         63.935          estimate D2E/DX2                !
 ! D49   D(9,10,23,24)         125.0235         estimate D2E/DX2                !
 ! D50   D(11,10,23,24)       -116.1399         estimate D2E/DX2                !
 ! D51   D(22,10,23,24)          0.0            estimate D2E/DX2                !
 ! D52   D(10,11,14,15)       -179.647          estimate D2E/DX2                !
 ! D53   D(12,11,14,15)        -59.077          estimate D2E/DX2                !
 ! D54   D(13,11,14,15)         58.9155         estimate D2E/DX2                !
 --------------------------------------------------------------------------------
 Trust Radius=3.00D-01 FncErr=1.00D-07 GrdErr=1.00D-06
 Number of steps in this run=    125 maximum allowed number of steps=    144.
 GradGradGradGradGradGradGradGradGradGradGradGradGradGradGradGradGradGrad

                          Input orientation:                          
 ---------------------------------------------------------------------
 Center     Atomic      Atomic             Coordinates (Angstroms)
 Number     Number       Type             X           Y           Z
 ---------------------------------------------------------------------
      1          6           0        0.000000    0.000000    0.000000
      2          8           0        0.000000    0.000000    1.413516
      3          1           0        0.927487    0.000000    1.705916
      4          1           0        0.518025   -0.897246   -0.348146
      5          1           0        0.517855    0.896952   -0.346765
      6          6           0       -1.421472    0.000000   -0.528838
      7          8           0       -2.388894   -0.031101    0.233292
      8          6           0       -1.598381    0.004915   -2.046186
      9          6           0       -0.298033    0.045392   -2.863171
     10          6           0       -0.475503    0.021535   -4.392866
     11          6           0        0.868280    0.042020   -5.121945
     12          1           0        1.456696   -0.851959   -4.890189
     13          1           0        1.450260    0.935079   -4.878545
     14          8           0        0.629072    0.051603   -6.525700
     15          1           0        1.497715    0.058819   -6.962591
     16          1           0       -2.230879    0.865635   -2.288466
     17          8           0       -2.322721   -1.160985   -2.418677
     18          1           0       -3.177394   -0.875136   -2.784805
     19          1           0        0.315092    0.921242   -2.614396
     20          8           0        0.442584   -1.096782   -2.443213
     21          1           0        1.278324   -0.786348   -2.056148
     22          1           0       -1.055845    0.887837   -4.729486
     23          8           0       -1.016917   -1.234648   -4.800512
     24          1           0       -1.823387   -1.059831   -5.314954
 ---------------------------------------------------------------------
                    Distance matrix (angstroms):
                    1          2          3          4          5
     1  C    0.000000
     2  O    1.413516   0.000000
     3  H    1.941747   0.972486   0.000000
     4  H    1.092980   2.043735   2.278570   0.000000
     5  H    1.092219   2.042373   2.277240   1.794199   0.000000
     6  C    1.516658   2.406932   3.242180   2.144609   2.144449
     7  O    2.400460   2.664716   3.628770   3.088439   3.105952
     8  C    2.596483   3.811087   4.523086   2.859442   2.856959
     9  C    2.878998   4.287299   4.730805   2.807110   2.779051
    10  C    4.418579   5.825859   6.258114   4.265093   4.257235
    11  C    5.195190   6.593021   6.828247   4.877915   4.863749
    12  H    5.173176   6.525680   6.671919   4.638244   4.958106
    13  H    5.174730   6.524390   6.671041   4.975037   4.626863
    14  O    6.556154   7.964267   8.237185   6.250985   6.237485
    15  H    7.122098   8.509158   8.687441   6.754608   6.740308
    16  H    3.311076   4.408040   5.165238   3.798561   3.365520
    17  O    3.548650   4.629106   5.378104   3.525123   4.073917
    18  H    4.314723   5.337377   6.146746   4.426502   4.768564
    19  H    2.789809   4.143917   4.459687   2.912725   2.276808
    20  O    2.714425   4.034002   4.318950   2.105899   2.894086
    21  H    2.545624   3.780347   3.859346   1.872865   2.516705
    22  H    4.926571   6.295994   6.792368   4.985953   4.656700
    23  O    5.059979   6.416589   6.902077   4.721594   5.170600
    24  H    5.718104   7.051262   7.614668   5.493435   5.830379
                    6          7          8          9         10
     6  C    0.000000
     7  O    1.231956   0.000000
     8  C    1.527634   2.412929   0.000000
     9  C    2.591001   3.737062   1.536232   0.000000
    10  C    3.978195   5.006513   2.601545   1.540140   0.000000
    11  C    5.132384   6.268420   3.942853   2.542117   1.528963
    12  H    5.294437   6.458516   4.260995   2.827210   2.178007
    13  H    5.295391   6.465561   4.263997   2.812437   2.186095
    14  O    6.337961   7.402630   5.002976   3.778053   2.402076
    15  H    7.065288   8.178909   5.810314   4.475504   3.240134
    16  H    2.121498   2.681113   1.095259   2.176919   2.867464
    17  O    2.394082   2.883393   1.422231   2.398392   2.950930
    18  H    2.989734   3.231569   1.952775   3.023943   3.269571
    19  H    2.865989   4.040770   2.196337   1.097691   2.144171
    20  O    2.888333   4.039384   2.353063   1.424584   2.427893
    21  H    3.199987   4.388670   2.983560   1.956522   3.031309
    22  H    4.308988   5.220214   2.876455   2.183375   1.095714
    23  O    4.464887   5.354440   3.075862   2.430758   1.427340
    24  H    4.918504   5.671077   3.445164   3.091838   1.958670
                   11         12         13         14         15
    11  C    0.000000
    12  H    1.095054   0.000000
    13  H    1.093389   1.787088   0.000000
    14  O    1.424023   2.043595   2.041568   0.000000
    15  H    1.945366   2.264078   2.261268   0.972351   0.000000
    16  H    4.279221   4.828799   4.501568   5.176497   6.033308
    17  O    4.351708   4.526352   4.967879   5.201066   6.060595
    18  H    4.761394   5.089987   5.392199   5.416856   6.338991
    19  H    2.714194   3.102698   2.532818   4.019099   4.587937
    20  O    2.941716   2.660085   3.327869   4.245028   4.782624
    21  H    3.202099   2.840407   3.310407   4.593537   4.983535
    22  H    2.138150   3.060323   2.510978   2.600888   3.492091
    23  O    2.299384   2.504647   3.286452   2.709243   3.559637
    24  H    2.914858   3.313998   3.858352   2.952244   3.872442
                   16         17         18         19         20
    16  H    0.000000
    17  O    2.032874   0.000000
    18  H    2.042676   0.972741   0.000000
    19  H    2.567351   3.366308   3.931090   0.000000
    20  O    3.320005   2.766159   3.642808   2.029280   0.000000
    21  H    3.885553   3.638586   4.515778   2.038460   0.971931
    22  H    2.709202   3.338036   3.375030   2.520752   3.378024
    23  O    3.492172   2.717294   2.976573   3.346821   2.775970
    24  H    3.610138   2.940746   2.875604   3.973758   3.658263
                   21         22         23         24
    21  H    0.000000
    22  H    3.924026   0.000000
    23  O    3.605640   2.124030   0.000000
    24  H    4.507241   2.173776   0.972422   0.000000
 Stoichiometry    C6H12O6
 Framework group  C1[X(C6H12O6)]
 Deg. of freedom    66
 Full point group                 C1      NOp   1
 Largest Abelian subgroup         C1      NOp   1
 Largest concise Abelian subgroup C1      NOp   1
                         Standard orientation:                         
 ---------------------------------------------------------------------
 Center     Atomic      Atomic             Coordinates (Angstroms)
 Number     Number       Type             X           Y           Z
 ---------------------------------------------------------------------
      1          6           0        2.370097   -1.059650   -0.005513
      2          8           0        3.757768   -1.312849    0.085520
      3          1           0        3.870245   -2.259266    0.278842
      4          1           0        1.905347   -1.320041    0.948851
      5          1           0        1.957654   -1.673248   -0.809460
      6          6           0        2.118485    0.405291   -0.306995
      7          8           0        3.047890    1.207429   -0.409436
      8          6           0        0.662319    0.846651   -0.442814
      9          6           0       -0.383338   -0.268427   -0.290461
     10          6           0       -1.852336    0.181349   -0.398983
     11          6           0       -2.820437   -0.987410   -0.213205
     12          1           0       -2.729044   -1.420172    0.788547
     13          1           0       -2.665686   -1.767769   -0.963265
     14          8           0       -4.153229   -0.507263   -0.358003
     15          1           0       -4.745427   -1.267743   -0.229792
     16          1           0        0.567948    1.330337   -1.420942
     17          8           0        0.399889    1.841059    0.539542
     18          1           0        0.209439    2.674236    0.075031
     19          1           0       -0.229661   -1.076384   -1.017450
     20          8           0       -0.142876   -0.832766    0.995284
     21          1           0        0.088615   -1.768799    0.873206
     22          1           0       -2.048981    0.630560   -1.378845
     23          8           0       -2.186271    1.023494    0.704003
     24          1           0       -2.534548    1.858625    0.347823
 ---------------------------------------------------------------------
 Rotational constants (GHZ):      1.9672519      0.4533163      0.3969560
 Standard basis: 6-31G(d) (6D, 7F)
 There are   204 symmetry adapted basis functions of A   symmetry.
 Integral buffers will be    131072 words long.
 Raffenetti 2 integral format.
 Two-electron integral symmetry is turned on.
   204 basis functions,   384 primitive gaussians,   204 cartesian basis functions
    48 alpha electrons       48 beta electrons
       nuclear repulsion energy       787.3195919569 Hartrees.
 NAtoms=   24 NActive=   24 NUniq=   24 SFac= 1.00D+00 NAtFMM=   50 NAOKFM=F Big=F
 One-electron integrals computed using PRISM.
 NBasis=   204 RedAO= T  NBF=   204
 NBsUse=   204 1.00D-06 NBFU=   204
 Harris functional with IExCor=  402 diagonalized for initial guess.
 ExpMin= 1.61D-01 ExpMax= 5.48D+03 ExpMxC= 8.25D+02 IAcc=1 IRadAn=         1 AccDes= 0.00D+00
 HarFok:  IExCor=  402 AccDes= 0.00D+00 IRadAn=         1 IDoV= 1
 ScaDFX=  1.000000  1.000000  1.000000  1.000000
 FoFCou: FMM=F IPFlag=           0 FMFlag=      100000 FMFlg1=           0
         NFxFlg=           0 DoJE=T BraDBF=F KetDBF=T FulRan=T
         Omega=  0.000000  0.000000  1.000000  0.000000  0.000000 ICntrl=     500 IOpCl=  0
         NMat0=    1 NMatS0=    1 NMatT0=    0 NMatD0=    1 NMtDS0=    0 NMtDT0=    0
         I1Cent=           4 NGrid=           0.
 Petite list used in FoFCou.
 Initial guess orbital symmetries:
       Occupied  (A) (A) (A) (A) (A) (A) (A) (A) (A) (A) (A) (A)
                 (A) (A) (A) (A) (A) (A) (A) (A) (A) (A) (A) (A)
                 (A) (A) (A) (A) (A) (A) (A) (A) (A) (A) (A) (A)
                 (A) (A) (A) (A) (A) (A) (A) (A) (A) (A) (A) (A)
       Virtual   (A) (A) (A) (A) (A) (A) (A) (A) (A) (A) (A) (A)
                 (A) (A) (A) (A) (A) (A) (A) (A) (A) (A) (A) (A)
                 (A) (A) (A) (A) (A) (A) (A) (A) (A) (A) (A) (A)
                 (A) (A) (A) (A) (A) (A) (A) (A) (A) (A) (A) (A)
                 (A) (A) (A) (A) (A) (A) (A) (A) (A) (A) (A) (A)
                 (A) (A) (A) (A) (A) (A) (A) (A) (A) (A) (A) (A)
                 (A) (A) (A) (A) (A) (A) (A) (A) (A) (A) (A) (A)
                 (A) (A) (A) (A) (A) (A) (A) (A) (A) (A) (A) (A)
                 (A) (A) (A) (A) (A) (A) (A) (A) (A) (A) (A) (A)
                 (A) (A) (A) (A) (A) (A) (A) (A) (A) (A) (A) (A)
                 (A) (A) (A) (A) (A) (A) (A) (A) (A) (A) (A) (A)
                 (A) (A) (A) (A) (A) (A) (A) (A) (A) (A) (A) (A)
                 (A) (A) (A) (A) (A) (A) (A) (A) (A) (A) (A) (A)
 The electronic state of the initial guess is 1-A.
 Requested convergence on RMS density matrix=1.00D-08 within 128 cycles.
 Requested convergence on MAX density matrix=1.00D-06.
 Requested convergence on             energy=1.00D-06.
 No special actions if energy rises.
 Keep R1 ints in memory in canonical form, NReq=223281102.
 Integral accuracy reduced to 1.0D-05 until final iterations.
 Initial convergence to 1.0D-05 achieved.  Increase integral accuracy.
 SCF Done:  E(RB3LYP) =  -687.075273972     A.U. after   14 cycles
             Convg  =    0.7520D-08             -V/T =  2.0084

 **********************************************************************

            Population analysis using the SCF density.

 **********************************************************************

 Orbital symmetries:
       Occupied  (A) (A) (A) (A) (A) (A) (A) (A) (A) (A) (A) (A)
                 (A) (A) (A) (A) (A) (A) (A) (A) (A) (A) (A) (A)
                 (A) (A) (A) (A) (A) (A) (A) (A) (A) (A) (A) (A)
                 (A) (A) (A) (A) (A) (A) (A) (A) (A) (A) (A) (A)
       Virtual   (A) (A) (A) (A) (A) (A) (A) (A) (A) (A) (A) (A)
                 (A) (A) (A) (A) (A) (A) (A) (A) (A) (A) (A) (A)
                 (A) (A) (A) (A) (A) (A) (A) (A) (A) (A) (A) (A)
                 (A) (A) (A) (A) (A) (A) (A) (A) (A) (A) (A) (A)
                 (A) (A) (A) (A) (A) (A) (A) (A) (A) (A) (A) (A)
                 (A) (A) (A) (A) (A) (A) (A) (A) (A) (A) (A) (A)
                 (A) (A) (A) (A) (A) (A) (A) (A) (A) (A) (A) (A)
                 (A) (A) (A) (A) (A) (A) (A) (A) (A) (A) (A) (A)
                 (A) (A) (A) (A) (A) (A) (A) (A) (A) (A) (A) (A)
                 (A) (A) (A) (A) (A) (A) (A) (A) (A) (A) (A) (A)
                 (A) (A) (A) (A) (A) (A) (A) (A) (A) (A) (A) (A)
                 (A) (A) (A) (A) (A) (A) (A) (A) (A) (A) (A) (A)
                 (A) (A) (A) (A) (A) (A) (A) (A) (A) (A) (A) (A)
 The electronic state is 1-A.
 Alpha  occ. eigenvalues --  -19.15818 -19.14826 -19.14474 -19.14164 -19.14134
 Alpha  occ. eigenvalues --  -19.13789 -10.27661 -10.25421 -10.25161 -10.24620
 Alpha  occ. eigenvalues --  -10.24208 -10.22990  -1.05178  -1.03718  -1.02260
 Alpha  occ. eigenvalues --   -1.02086  -1.00824  -1.00109  -0.78542  -0.75222
 Alpha  occ. eigenvalues --   -0.70821  -0.64977  -0.58964  -0.56682  -0.54154
 Alpha  occ. eigenvalues --   -0.52690  -0.52500  -0.51428  -0.49150  -0.47915
 Alpha  occ. eigenvalues --   -0.47004  -0.44407  -0.43146  -0.42510  -0.41174
 Alpha  occ. eigenvalues --   -0.40053  -0.36333  -0.35900  -0.34703  -0.34191
 Alpha  occ. eigenvalues --   -0.33283  -0.32924  -0.29957  -0.29017  -0.26898
 Alpha  occ. eigenvalues --   -0.26652  -0.25573  -0.23318
 Alpha virt. eigenvalues --   -0.03036   0.02945   0.05992   0.06799   0.07162
 Alpha virt. eigenvalues --    0.09418   0.10982   0.12383   0.13813   0.15552
 Alpha virt. eigenvalues --    0.15991   0.16795   0.17761   0.18785   0.20048
 Alpha virt. eigenvalues --    0.20884   0.21943   0.22925   0.25407   0.27107
 Alpha virt. eigenvalues --    0.29480   0.31962   0.34412   0.38026   0.52663
 Alpha virt. eigenvalues --    0.53832   0.54505   0.54911   0.56199   0.59019
 Alpha virt. eigenvalues --    0.59527   0.60672   0.64125   0.65129   0.67018
 Alpha virt. eigenvalues --    0.67856   0.68366   0.70635   0.71393   0.74241
 Alpha virt. eigenvalues --    0.76625   0.79010   0.79895   0.81217   0.81726
 Alpha virt. eigenvalues --    0.83220   0.83317   0.84615   0.85936   0.86617
 Alpha virt. eigenvalues --    0.88245   0.90357   0.91353   0.92421   0.92621
 Alpha virt. eigenvalues --    0.93490   0.96580   0.97252   0.97559   0.99496
 Alpha virt. eigenvalues --    0.99807   1.01428   1.03801   1.04320   1.05608
 Alpha virt. eigenvalues --    1.09011   1.11045   1.12757   1.13996   1.16745
 Alpha virt. eigenvalues --    1.19234   1.22592   1.24783   1.27639   1.31556
 Alpha virt. eigenvalues --    1.32347   1.35138   1.37839   1.40661   1.42868
 Alpha virt. eigenvalues --    1.47664   1.51354   1.53331   1.58592   1.61213
 Alpha virt. eigenvalues --    1.61988   1.64435   1.65189   1.67560   1.70889
 Alpha virt. eigenvalues --    1.72787   1.73827   1.74368   1.74960   1.76749
 Alpha virt. eigenvalues --    1.78950   1.80081   1.81600   1.83517   1.86803
 Alpha virt. eigenvalues --    1.88961   1.90833   1.92101   1.95832   1.98655
 Alpha virt. eigenvalues --    2.00391   2.00692   2.02546   2.08075   2.10528
 Alpha virt. eigenvalues --    2.12562   2.12786   2.13946   2.17359   2.19221
 Alpha virt. eigenvalues --    2.21600   2.23618   2.25955   2.29621   2.32579
 Alpha virt. eigenvalues --    2.35254   2.36751   2.39915   2.43327   2.44660
 Alpha virt. eigenvalues --    2.49589   2.50536   2.52550   2.56278   2.59167
 Alpha virt. eigenvalues --    2.62190   2.63400   2.64536   2.66960   2.68943
 Alpha virt. eigenvalues --    2.72197   2.79562   2.85209   2.89815   2.93878
 Alpha virt. eigenvalues --    2.95288   2.97922   3.01317   3.04859   3.68323
 Alpha virt. eigenvalues --    3.75881   3.80857   3.83052   3.90565   4.06152
 Alpha virt. eigenvalues --    4.17815   4.28230   4.41028   4.44234   4.57327
 Alpha virt. eigenvalues --    4.73398
          Condensed to atoms (all electrons):
              1          2          3          4          5          6
     1  C    5.204514   0.215067  -0.022250   0.346728   0.336876   0.256605
     2  O    0.215067   8.257654   0.232021  -0.031444  -0.038667  -0.032498
     3  H   -0.022250   0.232021   0.400914  -0.003636  -0.004682   0.006497
     4  H    0.346728  -0.031444  -0.003636   0.571053  -0.046763  -0.031069
     5  H    0.336876  -0.038667  -0.004682  -0.046763   0.646325  -0.032822
     6  C    0.256605  -0.032498   0.006497  -0.031069  -0.032822   4.656424
     7  O   -0.082083   0.002667   0.000235  -0.000402   0.000781   0.560974
     8  C   -0.127844   0.001864  -0.000222   0.007802   0.003791   0.267761
     9  C    0.006101   0.000077   0.000012  -0.007742  -0.000776  -0.038718
    10  C    0.000261   0.000000   0.000000   0.000220   0.000254   0.001287
    11  C    0.000002   0.000000   0.000000  -0.000023  -0.000010  -0.000048
    12  H   -0.000003   0.000000   0.000000  -0.000008   0.000001   0.000007
    13  H   -0.000001   0.000000   0.000000  -0.000001  -0.000009   0.000008
    14  O    0.000000   0.000000   0.000000   0.000000   0.000000   0.000000
    15  H    0.000000   0.000000   0.000000   0.000000   0.000000   0.000000
    16  H    0.007562  -0.000034   0.000005   0.000262  -0.000636  -0.029573
    17  O    0.002739  -0.000008   0.000001  -0.000050   0.000064  -0.044960
    18  H   -0.000246   0.000001   0.000000  -0.000013   0.000002   0.001161
    19  H   -0.003620  -0.000016  -0.000006   0.000725   0.005769   0.001554
    20  O   -0.014848   0.000376   0.000017   0.022046  -0.001275  -0.005831
    21  H    0.007079  -0.000226  -0.000072  -0.001592   0.000656  -0.001590
    22  H   -0.000005   0.000000   0.000000  -0.000009  -0.000002   0.000051
    23  O   -0.000001   0.000000   0.000000  -0.000002  -0.000001  -0.000009
    24  H    0.000000   0.000000   0.000000   0.000000   0.000000   0.000019
              7          8          9         10         11         12
     1  C   -0.082083  -0.127844   0.006101   0.000261   0.000002  -0.000003
     2  O    0.002667   0.001864   0.000077   0.000000   0.000000   0.000000
     3  H    0.000235  -0.000222   0.000012   0.000000   0.000000   0.000000
     4  H   -0.000402   0.007802  -0.007742   0.000220  -0.000023  -0.000008
     5  H    0.000781   0.003791  -0.000776   0.000254  -0.000010   0.000001
     6  C    0.560974   0.267761  -0.038718   0.001287  -0.000048   0.000007
     7  O    8.004305  -0.058340   0.003101  -0.000046   0.000000   0.000000
     8  C   -0.058340   5.158027   0.269999  -0.021491   0.002898   0.000064
     9  C    0.003101   0.269999   5.115461   0.274275  -0.047044  -0.007047
    10  C   -0.000046  -0.021491   0.274275   4.940686   0.349685  -0.025657
    11  C    0.000000   0.002898  -0.047044   0.349685   4.916794   0.358282
    12  H    0.000000   0.000064  -0.007047  -0.025657   0.358282   0.607805
    13  H    0.000000  -0.000047   0.005475  -0.043820   0.334119  -0.052173
    14  O    0.000000  -0.000023   0.001936  -0.042555   0.240678  -0.039374
    15  H    0.000000   0.000003  -0.000224   0.006177  -0.022931  -0.003584
    16  H   -0.002366   0.336516  -0.047081  -0.001336  -0.000146  -0.000005
    17  O   -0.000981   0.238084  -0.068919   0.000080   0.000114  -0.000006
    18  H    0.000848  -0.013151   0.005289   0.001083   0.000045   0.000001
    19  H    0.000035  -0.044611   0.344505  -0.044194  -0.000613   0.000216
    20  O   -0.000087  -0.057019   0.199220  -0.051060  -0.003423   0.010151
    21  H    0.000013   0.009125  -0.016842   0.002247   0.000883   0.000261
    22  H    0.000000  -0.002009  -0.045081   0.344936  -0.046013   0.007140
    23  O    0.000000  -0.003313  -0.054429   0.235784  -0.068956  -0.003199
    24  H    0.000000   0.000735   0.004819  -0.016788   0.004505  -0.000193
             13         14         15         16         17         18
     1  C   -0.000001   0.000000   0.000000   0.007562   0.002739  -0.000246
     2  O    0.000000   0.000000   0.000000  -0.000034  -0.000008   0.000001
     3  H    0.000000   0.000000   0.000000   0.000005   0.000001   0.000000
     4  H   -0.000001   0.000000   0.000000   0.000262  -0.000050  -0.000013
     5  H   -0.000009   0.000000   0.000000  -0.000636   0.000064   0.000002
     6  C    0.000008   0.000000   0.000000  -0.029573  -0.044960   0.001161
     7  O    0.000000   0.000000   0.000000  -0.002366  -0.000981   0.000848
     8  C   -0.000047  -0.000023   0.000003   0.336516   0.238084  -0.013151
     9  C    0.005475   0.001936  -0.000224  -0.047081  -0.068919   0.005289
    10  C   -0.043820  -0.042555   0.006177  -0.001336   0.000080   0.001083
    11  C    0.334119   0.240678  -0.022931  -0.000146   0.000114   0.000045
    12  H   -0.052173  -0.039374  -0.003584  -0.000005  -0.000006   0.000001
    13  H    0.700080  -0.042021  -0.004692  -0.000002   0.000004  -0.000001
    14  O   -0.042021   8.271639   0.235219  -0.000001   0.000000   0.000000
    15  H   -0.004692   0.235219   0.397644   0.000000   0.000000   0.000000
    16  H   -0.000002  -0.000001   0.000000   0.634169  -0.025277  -0.016325
    17  O    0.000004   0.000000   0.000000  -0.025277   8.244669   0.229996
    18  H   -0.000001   0.000000   0.000000  -0.016325   0.229996   0.392088
    19  H    0.004186  -0.000023  -0.000006   0.001170   0.003418  -0.000189
    20  O    0.000121   0.000051   0.000009   0.004072   0.001582  -0.000042
    21  H   -0.000048  -0.000002  -0.000002  -0.000397  -0.000037  -0.000004
    22  H   -0.003213   0.003550  -0.000141   0.001849  -0.000046  -0.000074
    23  O    0.005600   0.002138   0.000093   0.000042  -0.004076   0.002509
    24  H   -0.000319   0.001052   0.000003  -0.000032   0.002635   0.000378
             19         20         21         22         23         24
     1  C   -0.003620  -0.014848   0.007079  -0.000005  -0.000001   0.000000
     2  O   -0.000016   0.000376  -0.000226   0.000000   0.000000   0.000000
     3  H   -0.000006   0.000017  -0.000072   0.000000   0.000000   0.000000
     4  H    0.000725   0.022046  -0.001592  -0.000009  -0.000002   0.000000
     5  H    0.005769  -0.001275   0.000656  -0.000002  -0.000001   0.000000
     6  C    0.001554  -0.005831  -0.001590   0.000051  -0.000009   0.000019
     7  O    0.000035  -0.000087   0.000013   0.000000   0.000000   0.000000
     8  C   -0.044611  -0.057019   0.009125  -0.002009  -0.003313   0.000735
     9  C    0.344505   0.199220  -0.016842  -0.045081  -0.054429   0.004819
    10  C   -0.044194  -0.051060   0.002247   0.344936   0.235784  -0.016788
    11  C   -0.000613  -0.003423   0.000883  -0.046013  -0.068956   0.004505
    12  H    0.000216   0.010151   0.000261   0.007140  -0.003199  -0.000193
    13  H    0.004186   0.000121  -0.000048  -0.003213   0.005600  -0.000319
    14  O   -0.000023   0.000051  -0.000002   0.003550   0.002138   0.001052
    15  H   -0.000006   0.000009  -0.000002  -0.000141   0.000093   0.000003
    16  H    0.001170   0.004072  -0.000397   0.001849   0.000042  -0.000032
    17  O    0.003418   0.001582  -0.000037  -0.000046  -0.004076   0.002635
    18  H   -0.000189  -0.000042  -0.000004  -0.000074   0.002509   0.000378
    19  H    0.663052  -0.033767  -0.017268   0.001357   0.003321  -0.000182
    20  O   -0.033767   8.307111   0.217651   0.003147   0.001317  -0.000050
    21  H   -0.017268   0.217651   0.409451  -0.000096   0.000001  -0.000008
    22  H    0.001357   0.003147  -0.000096   0.646834  -0.027013  -0.012725
    23  O    0.003321   0.001317   0.000001  -0.027013   8.264661   0.228580
    24  H   -0.000182  -0.000050  -0.000008  -0.012725   0.228580   0.397101
 Mulliken atomic charges:
              1
     1  C   -0.132634
     2  O   -0.606833
     3  H    0.391165
     4  H    0.173916
     5  H    0.131122
     6  C    0.464771
     7  O   -0.428655
     8  C    0.031399
     9  C    0.103630
    10  C    0.089972
    11  C   -0.018797
    12  H    0.147322
    13  H    0.096755
    14  O   -0.632265
    15  H    0.392432
    16  H    0.137562
    17  O   -0.579026
    18  H    0.396644
    19  H    0.115189
    20  O   -0.599470
    21  H    0.390816
    22  H    0.127562
    23  O   -0.583047
    24  H    0.390469
 Sum of Mulliken atomic charges =   0.00000
 Mulliken charges with hydrogens summed into heavy atoms:
              1
     1  C    0.172404
     2  O   -0.215668
     6  C    0.464771
     7  O   -0.428655
     8  C    0.168961
     9  C    0.218819
    10  C    0.217534
    11  C    0.225280
    14  O   -0.239832
    17  O   -0.182382
    20  O   -0.208654
    23  O   -0.192578
 Sum of Mulliken charges with hydrogens summed into heavy atoms =   0.00000
 Electronic spatial extent (au):  <R**2>=           2718.8092
 Charge=              0.0000 electrons
 Dipole moment (field-independent basis, Debye):
    X=             -3.2403    Y=             -3.9062    Z=             -2.9609  Tot=              5.8758
 Quadrupole moment (field-independent basis, Debye-Ang):
   XX=            -84.5760   YY=            -51.9958   ZZ=            -73.0681
   XY=             -6.6663   XZ=              3.5155   YZ=             -4.5660
 Traceless Quadrupole moment (field-independent basis, Debye-Ang):
   XX=            -14.6961   YY=             17.8842   ZZ=             -3.1881
   XY=             -6.6663   XZ=              3.5155   YZ=             -4.5660
 Octapole moment (field-independent basis, Debye-Ang**2):
  XXX=            -83.3892  YYY=              2.1568  ZZZ=              1.9543  XYY=             -9.1574
  XXY=            -58.1070  XXZ=             13.2428  XZZ=              5.3415  YZZ=             -1.3806
  YYZ=              3.1335  XYZ=             -1.2514
 Hexadecapole moment (field-independent basis, Debye-Ang**3):
 XXXX=          -2574.2135 YYYY=           -409.8134 ZZZZ=           -187.3767 XXXY=             23.9355
 XXXZ=             14.9525 YYYX=            -88.2797 YYYZ=            -16.6825 ZZZX=             -1.4286
 ZZZY=             -4.5338 XXYY=           -360.5219 XXZZ=           -455.2659 YYZZ=           -120.8448
 XXYZ=             -7.9881 YYXZ=             11.3019 ZZXY=             -3.5439
 N-N= 7.873195919569D+02 E-N=-3.186830830980D+03  KE= 6.813644594031D+02
 Calling FoFJK, ICntrl=      2127 FMM=F ISym2X=0 I1Cent= 0 IOpClX= 0 NMat=1 NMatS=1 NMatT=0.
 ***** Axes restored to original set *****
 -------------------------------------------------------------------
 Center     Atomic                   Forces (Hartrees/Bohr)
 Number     Number              X              Y              Z
 -------------------------------------------------------------------
      1        6           0.004800103   -0.004331405    0.027610074
      2        8          -0.003683500    0.003193070    0.007570480
      3        1          -0.003936049   -0.000530579   -0.001930847
      4        1          -0.003418599    0.001790559   -0.003332136
      5        1           0.003753148    0.004201420   -0.010434517
      6        6          -0.018071320   -0.004098324    0.028903331
      7        8           0.024133945    0.002180769   -0.025284869
      8        6          -0.013616591    0.004647364   -0.018341418
      9        6           0.005978579    0.001028278    0.005076869
     10        6           0.014532975   -0.020934846   -0.007241080
     11        6           0.010887087    0.007852792   -0.009289661
     12        1          -0.002750599   -0.000475004    0.010192583
     13        1           0.003871619    0.004826536    0.008632741
     14        8          -0.005091094    0.003386545   -0.005533237
     15        1          -0.004069561   -0.000652420    0.001706109
     16        1           0.003861301    0.008360668    0.001725286
     17        8          -0.009602101   -0.003505481    0.004032452
     18        1           0.005166479   -0.003495628    0.004401584
     19        1          -0.007727740    0.008165444   -0.000638171
     20        8           0.015199829   -0.011243831   -0.009053950
     21        1          -0.003224822   -0.003294366   -0.007242105
     22        1          -0.004365417   -0.000105833    0.000329133
     23        8          -0.017398799    0.006101973   -0.004215123
     24        1           0.004771129   -0.003067700    0.002356472
 -------------------------------------------------------------------
 Cartesian Forces:  Max     0.028903331 RMS     0.009635562

 GradGradGradGradGradGradGradGradGradGradGradGradGradGradGradGradGradGrad
 Berny optimization.
 Internal  Forces:  Max     0.044270423 RMS     0.009860056
 Search for a local minimum.
 Step number   1 out of a maximum of  125
 All quantities printed in internal units (Hartrees-Bohrs-Radians)
 Mixed Optimization -- RFO/linear search
 Second derivative matrix not updated -- first step.
 ITU=  0
     Eigenvalues ---    0.00235   0.00287   0.00383   0.00400   0.00474
     Eigenvalues ---    0.00546   0.01330   0.01367   0.01374   0.01398
     Eigenvalues ---    0.01513   0.03781   0.04319   0.04408   0.04772
     Eigenvalues ---    0.05219   0.05249   0.05269   0.05567   0.06358
     Eigenvalues ---    0.07288   0.07362   0.07927   0.08477   0.11472
     Eigenvalues ---    0.11550   0.13692   0.13970   0.15909   0.16000
     Eigenvalues ---    0.16000   0.16000   0.16000   0.16000   0.17086
     Eigenvalues ---    0.18266   0.19154   0.19519   0.19831   0.22028
     Eigenvalues ---    0.22170   0.24991   0.25000   0.28507   0.28855
     Eigenvalues ---    0.29519   0.29643   0.30691   0.33939   0.34161
     Eigenvalues ---    0.34212   0.34235   0.34424   0.34470   0.34557
     Eigenvalues ---    0.41374   0.41777   0.41860   0.42126   0.43452
     Eigenvalues ---    0.52821   0.52872   0.52885   0.52899   0.52984
     Eigenvalues ---    0.90276
 RFO step:  Lambda=-4.90454526D-02 EMin= 2.34970769D-03
 Linear search not attempted -- first point.
 Maximum step size (   0.300) exceeded in Quadratic search.
    -- Step size scaled by   0.814
 Iteration  1 RMS(Cart)=  0.23615797 RMS(Int)=  0.01218959
 Iteration  2 RMS(Cart)=  0.02416957 RMS(Int)=  0.00090888
 Iteration  3 RMS(Cart)=  0.00035562 RMS(Int)=  0.00089848
 Iteration  4 RMS(Cart)=  0.00000021 RMS(Int)=  0.00089848
 Variable       Old X    -DE/DX   Delta X   Delta X   Delta X     New X
                                 (Linear)    (Quad)   (Total)
    R1        2.67116   0.00564   0.00000   0.00949   0.00949   2.68065
    R2        2.06543  -0.00203   0.00000  -0.00420  -0.00420   2.06124
    R3        2.06400   0.00854   0.00000   0.01762   0.01762   2.08161
    R4        2.86607   0.00447   0.00000   0.01021   0.01021   2.87628
    R5        1.83773  -0.00433   0.00000  -0.00610  -0.00610   1.83163
    R6        2.32806  -0.03465   0.00000  -0.02962  -0.02962   2.29844
    R7        2.88681   0.02335   0.00000   0.05501   0.05501   2.94182
    R8        2.90306   0.01669   0.00000   0.04023   0.04023   2.94329
    R9        2.06974   0.00396   0.00000   0.00823   0.00823   2.07797
   R10        2.68763   0.00580   0.00000   0.01003   0.01003   2.69766
   R11        2.91044   0.00305   0.00000   0.00742   0.00742   2.91786
   R12        2.07433   0.00205   0.00000   0.00430   0.00430   2.07864
   R13        2.69207   0.01307   0.00000   0.02279   0.02279   2.71486
   R14        2.88932  -0.00003   0.00000  -0.00006  -0.00006   2.88926
   R15        2.07060   0.00213   0.00000   0.00443   0.00443   2.07503
   R16        2.69728   0.00266   0.00000   0.00467   0.00467   2.70195
   R17        2.06935   0.00106   0.00000   0.00221   0.00221   2.07156
   R18        2.06621   0.00793   0.00000   0.01640   0.01640   2.08261
   R19        2.69101   0.00533   0.00000   0.00928   0.00928   2.70029
   R20        1.83748  -0.00441   0.00000  -0.00621  -0.00621   1.83127
   R21        1.83821  -0.00723   0.00000  -0.01019  -0.01019   1.82802
   R22        1.83668  -0.00671   0.00000  -0.00943  -0.00943   1.82726
   R23        1.83761  -0.00576   0.00000  -0.00811  -0.00811   1.82950
    A1        1.89497   0.00788   0.00000   0.03410   0.03379   1.92876
    A2        1.89387   0.00688   0.00000   0.02979   0.02952   1.92339
    A3        1.92697  -0.00989   0.00000  -0.02811  -0.02801   1.89896
    A4        1.92656  -0.00177   0.00000  -0.00909  -0.00975   1.91681
    A5        1.91043  -0.00217   0.00000  -0.01595  -0.01585   1.89458
    A6        1.91099  -0.00086   0.00000  -0.01029  -0.01021   1.90079
    A7        1.87619  -0.00121   0.00000  -0.00471  -0.00471   1.87148
    A8        2.11798  -0.01642   0.00000  -0.04432  -0.04480   2.07318
    A9        2.04303   0.04427   0.00000   0.12082   0.12035   2.16338
   A10        2.12188  -0.02776   0.00000  -0.07518  -0.07564   2.04624
   A11        2.01561   0.03384   0.00000   0.11825   0.11866   2.13427
   A12        1.86411  -0.01338   0.00000  -0.07289  -0.07103   1.79308
   A13        1.89282  -0.01714   0.00000  -0.04074  -0.04480   1.84802
   A14        1.92887  -0.01360   0.00000  -0.05985  -0.05720   1.87167
   A15        1.88958  -0.00034   0.00000   0.02110   0.01986   1.90944
   A16        1.86730   0.00915   0.00000   0.02880   0.02764   1.89494
   A17        2.01558  -0.00491   0.00000  -0.02083  -0.02116   1.99441
   A18        1.95335  -0.00731   0.00000  -0.04069  -0.04356   1.90979
   A19        1.83605   0.02297   0.00000   0.10066   0.10072   1.93677
   A20        1.87740   0.00178   0.00000  -0.02705  -0.02855   1.84885
   A21        1.91801  -0.01603   0.00000  -0.04940  -0.04892   1.86909
   A22        1.85723   0.00395   0.00000   0.04417   0.04386   1.90109
   A23        1.95210  -0.00918   0.00000  -0.02243  -0.02349   1.92861
   A24        1.93255   0.00007   0.00000  -0.02018  -0.02054   1.91201
   A25        1.91878   0.00347   0.00000   0.02581   0.02583   1.94461
   A26        1.88432   0.00036   0.00000  -0.00901  -0.00938   1.87494
   A27        1.78133   0.01137   0.00000   0.05906   0.05908   1.84041
   A28        1.99016  -0.00588   0.00000  -0.02937  -0.02916   1.96099
   A29        1.93950  -0.00643   0.00000  -0.03650  -0.03642   1.90307
   A30        1.95260  -0.00035   0.00000  -0.01066  -0.01067   1.94194
   A31        1.89918  -0.01091   0.00000  -0.03017  -0.03001   1.86917
   A32        1.91100   0.00017   0.00000  -0.00209  -0.00345   1.90755
   A33        1.88009   0.01139   0.00000   0.05242   0.05181   1.93190
   A34        1.87901   0.00697   0.00000   0.03158   0.03117   1.91018
   A35        1.86806   0.00056   0.00000   0.00217   0.00217   1.87023
   A36        1.88091   0.00250   0.00000   0.00972   0.00972   1.89062
   A37        1.88426   0.00173   0.00000   0.00672   0.00672   1.89098
   A38        1.88331   0.00385   0.00000   0.01497   0.01497   1.89828
    D1        1.04720   0.00308   0.00000   0.00991   0.01051   1.05771
    D2       -1.04720  -0.00336   0.00000  -0.01626  -0.01683  -1.06403
    D3        3.14159  -0.00064   0.00000  -0.00532  -0.00535   3.13624
    D4       -0.02957  -0.00108   0.00000  -0.01367  -0.01344  -0.04301
    D5        3.13798  -0.00470   0.00000  -0.06970  -0.06997   3.06801
    D6        2.05550   0.00117   0.00000   0.00103   0.00128   2.05678
    D7       -1.06014  -0.00245   0.00000  -0.05500  -0.05525  -1.11538
    D8       -2.11363  -0.00291   0.00000  -0.02661  -0.02635  -2.13997
    D9        1.05392  -0.00654   0.00000  -0.08264  -0.08287   0.97105
   D10       -0.02602  -0.00305   0.00000  -0.01621  -0.01667  -0.04269
   D11       -2.17862   0.00204   0.00000   0.03767   0.03901  -2.13961
   D12        2.09755   0.00659   0.00000   0.06121   0.05956   2.15711
   D13        3.14159  -0.00687   0.00000  -0.07288  -0.07282   3.06877
   D14        0.98899  -0.00178   0.00000  -0.01899  -0.01714   0.97185
   D15       -1.01803   0.00277   0.00000   0.00454   0.00340  -1.01462
   D16        3.12086   0.00551   0.00000   0.12097   0.12194  -3.04039
   D17       -1.00654  -0.00210   0.00000   0.03329   0.03563  -0.97091
   D18        1.00309   0.01214   0.00000   0.12325   0.12433   1.12742
   D19       -1.04426   0.00174   0.00000   0.06343   0.06292  -0.98135
   D20        1.11152  -0.00587   0.00000  -0.02425  -0.02339   1.08813
   D21        3.12116   0.00836   0.00000   0.06572   0.06531  -3.09672
   D22        0.99555   0.00496   0.00000   0.07703   0.07510   1.07065
   D23       -3.13185  -0.00265   0.00000  -0.01064  -0.01121   3.14013
   D24       -1.12221   0.01159   0.00000   0.07932   0.07749  -1.04472
   D25        2.00493  -0.01783   0.00000  -0.09023  -0.08952   1.91541
   D26       -2.07914   0.01271   0.00000   0.04352   0.04226  -2.03689
   D27        0.00000   0.00149   0.00000  -0.00010   0.00045   0.00045
   D28       -3.12566  -0.01536   0.00000  -0.11258  -0.11224   3.04528
   D29        1.05505  -0.00967   0.00000  -0.07210  -0.07219   0.98286
   D30       -1.15972  -0.00467   0.00000  -0.03831  -0.03823  -1.19795
   D31        0.96229  -0.00351   0.00000  -0.02117  -0.02074   0.94155
   D32       -1.14019   0.00218   0.00000   0.01931   0.01931  -1.12088
   D33        2.92823   0.00719   0.00000   0.05311   0.05328   2.98150
   D34       -1.05269  -0.00078   0.00000  -0.03276  -0.03284  -1.08554
   D35        3.12801   0.00490   0.00000   0.00772   0.00721   3.13522
   D36        0.91324   0.00991   0.00000   0.04151   0.04117   0.95442
   D37       -2.07517  -0.00490   0.00000  -0.04447  -0.04688  -2.12205
   D38        2.02772  -0.00408   0.00000  -0.05387  -0.05412   1.97360
   D39        0.00000  -0.00023   0.00000  -0.02121  -0.01855  -0.01855
   D40        1.09888   0.00191   0.00000   0.02277   0.02268   1.12156
   D41       -1.04308   0.00661   0.00000   0.05960   0.05938  -0.98370
   D42       -3.11698   0.00524   0.00000   0.04648   0.04646  -3.07052
   D43       -3.05394  -0.00357   0.00000  -0.02277  -0.02273  -3.07667
   D44        1.08729   0.00112   0.00000   0.01406   0.01397   1.10127
   D45       -0.98661  -0.00024   0.00000   0.00094   0.00105  -0.98556
   D46       -0.95145  -0.00441   0.00000  -0.03053  -0.03042  -0.98187
   D47       -3.09340   0.00028   0.00000   0.00630   0.00628  -3.08712
   D48        1.11588  -0.00108   0.00000  -0.00682  -0.00664   1.10924
   D49        2.18207   0.00076   0.00000  -0.01135  -0.01211   2.16996
   D50       -2.02702  -0.00223   0.00000   0.00566   0.00670  -2.02032
   D51        0.00000   0.00234   0.00000   0.01707   0.01680   0.01680
   D52       -3.13543   0.00192   0.00000   0.01096   0.01116  -3.12427
   D53       -1.03109  -0.00539   0.00000  -0.01952  -0.02065  -1.05174
   D54        1.02827   0.00455   0.00000   0.02260   0.02353   1.05180
         Item               Value     Threshold  Converged?
 Maximum Force            0.044270     0.000450     NO 
 RMS     Force            0.009860     0.000300     NO 
 Maximum Displacement     0.892651     0.001800     NO 
 RMS     Displacement     0.245300     0.001200     NO 
 Predicted change in Energy=-2.898190D-02
 GradGradGradGradGradGradGradGradGradGradGradGradGradGradGradGradGradGrad

                          Input orientation:                          
 ---------------------------------------------------------------------
 Center     Atomic      Atomic             Coordinates (Angstroms)
 Number     Number       Type             X           Y           Z
 ---------------------------------------------------------------------
      1          6           0       -0.038093    0.025811    0.284165
      2          8           0       -0.328259    0.209738    1.660473
      3          1           0        0.516893    0.206316    2.134988
      4          1           0        0.467354   -0.927447    0.124224
      5          1           0        0.592904    0.849802   -0.084994
      6          6           0       -1.345027    0.017821   -0.495923
      7          8           0       -2.392360    0.113304    0.115072
      8          6           0       -1.430672   -0.066775   -2.048003
      9          6           0       -0.161855   -0.095708   -2.950855
     10          6           0       -0.458879   -0.039093   -4.465026
     11          6           0        0.841549    0.065450   -5.262264
     12          1           0        1.429006   -0.847382   -5.109493
     13          1           0        1.435529    0.938031   -4.945493
     14          8           0        0.480804    0.209422   -6.637394
     15          1           0        1.304587    0.259821   -7.145263
     16          1           0       -1.995993    0.839460   -2.309351
     17          8           0       -2.241607   -1.206525   -2.333000
     18          1           0       -3.087534   -0.897325   -2.685942
     19          1           0        0.462515    0.783182   -2.732583
     20          8           0        0.609217   -1.284931   -2.716027
     21          1           0        1.497364   -1.021930   -2.438532
     22          1           0       -1.054937    0.855404   -4.689356
     23          8           0       -1.088343   -1.239988   -4.918882
     24          1           0       -1.922200   -1.009464   -5.353417
 ---------------------------------------------------------------------
                    Distance matrix (angstroms):
                    1          2          3          4          5
     1  C    0.000000
     2  O    1.418537   0.000000
     3  H    1.940654   0.969257   0.000000
     4  H    1.090760   2.070325   2.308905   0.000000
     5  H    1.101543   2.074820   2.312612   1.793920   0.000000
     6  C    1.522064   2.391797   3.228618   2.136080   2.148636
     7  O    2.361953   2.580325   3.542946   3.043223   3.081276
     8  C    2.717877   3.878733   4.622230   3.010288   2.964520
     9  C    3.239666   4.624427   5.139817   3.247123   3.110757
    10  C    4.768238   6.131942   6.676268   4.765323   4.591412
    11  C    5.615890   7.022361   7.405713   5.490003   5.242247
    12  H    5.657419   7.073748   7.377312   5.321934   5.368900
    13  H    5.509358   6.876056   7.177222   5.488115   4.933787
    14  O    6.943410   8.337216   8.772457   6.856540   6.584573
    15  H    7.553407   8.955986   9.313774   7.413232   7.120531
    16  H    3.349883   4.351710   5.144669   3.887457   3.413247
    17  O    3.636438   4.649143   5.437680   3.668011   4.161306
    18  H    4.355778   5.265976   6.119746   4.531574   4.833529
    19  H    3.150395   4.500345   4.901937   3.329809   2.651635
    20  O    3.337395   4.718755   5.075893   2.866173   3.388168
    21  H    3.296736   4.653143   4.836011   2.763615   3.140154
    22  H    5.143744   6.423805   7.033039   5.354109   4.890354
    23  O    5.456828   6.779922   7.377376   5.286852   5.528136
    24  H    6.033572   7.295324   7.968909   5.976726   6.126900
                    6          7          8          9         10
     6  C    0.000000
     7  O    1.216280   0.000000
     8  C    1.556742   2.374061   0.000000
     9  C    2.727540   3.797202   1.557522   0.000000
    10  C    4.067220   4.973819   2.605216   1.544067   0.000000
    11  C    5.244178   6.275046   3.938521   2.524957   1.528931
    12  H    5.452418   6.543839   4.261434   2.784883   2.152389
    13  H    5.327002   6.398611   4.197641   2.756598   2.185040
    14  O    6.409996   7.338945   4.979210   3.754556   2.379905
    15  H    7.161896   8.148702   5.793994   4.457569   3.222240
    16  H    2.094604   2.561686   1.099614   2.156415   2.789536
    17  O    2.382799   2.785270   1.427540   2.437422   3.014391
    18  H    2.944487   3.057828   1.960094   3.045055   3.288089
    19  H    2.975842   4.087565   2.185231   1.099967   2.127548
    20  O    3.231887   4.356563   2.468057   1.436644   2.398320
    21  H    3.596387   4.789530   3.104550   1.968088   2.983209
    22  H    4.286092   5.042018   2.822824   2.173614   1.098059
    23  O    4.605490   5.373319   3.120187   2.457822   1.429811
    24  H    4.998369   5.602324   3.472179   3.115457   1.967782
                   11         12         13         14         15
    11  C    0.000000
    12  H    1.096224   0.000000
    13  H    1.102067   1.792940   0.000000
    14  O    1.428932   2.085762   2.074825   0.000000
    15  H    1.948812   2.320719   2.305667   0.969067   0.000000
    16  H    4.167785   4.734643   4.328314   5.026274   5.883524
    17  O    4.438960   4.616416   4.994554   5.286231   6.154961
    18  H    4.796047   5.125936   5.378865   5.438005   6.365160
    19  H    2.656707   3.040155   2.422334   3.946781   4.522691
    20  O    2.891510   2.567524   3.254976   4.198416   4.742144
    21  H    3.096119   2.677531   3.182786   4.492223   4.881943
    22  H    2.132817   3.040718   2.504965   2.563327   3.457391
    23  O    2.355114   2.554900   3.333827   2.741586   3.596153
    24  H    2.966826   3.363978   3.903009   2.984746   3.903069
                   16         17         18         19         20
    16  H    0.000000
    17  O    2.060810   0.000000
    18  H    2.085594   0.967349   0.000000
    19  H    2.495306   3.380958   3.927992   0.000000
    20  O    3.386080   2.877509   3.717137   2.073376   0.000000
    21  H    3.960429   3.745013   4.593258   2.101383   0.966943
    22  H    2.559349   3.348455   3.349205   2.477263   3.353277
    23  O    3.457974   2.831594   3.016655   3.358315   2.781420
    24  H    3.562346   3.043645   2.913075   3.971047   3.666030
                   21         22         23         24
    21  H    0.000000
    22  H    3.886494   0.000000
    23  O    3.589647   2.108190   0.000000
    24  H    4.493343   2.161216   0.968132   0.000000
 Stoichiometry    C6H12O6
 Framework group  C1[X(C6H12O6)]
 Deg. of freedom    66
 Full point group                 C1      NOp   1
 Largest Abelian subgroup         C1      NOp   1
 Largest concise Abelian subgroup C1      NOp   1
                         Standard orientation:                         
 ---------------------------------------------------------------------
 Center     Atomic      Atomic             Coordinates (Angstroms)
 Number     Number       Type             X           Y           Z
 ---------------------------------------------------------------------
      1          6           0        2.686917   -1.056464    0.042089
      2          8           0        4.099391   -1.047143   -0.088601
      3          1           0        4.413365   -1.938845    0.125285
      4          1           0        2.399256   -1.310451    1.063118
      5          1           0        2.244553   -1.779435   -0.661489
      6          6           0        2.155338    0.333062   -0.279345
      7          8           0        2.948401    1.217878   -0.539130
      8          6           0        0.641918    0.693270   -0.336416
      9          6           0       -0.475114   -0.370163   -0.119110
     10          6           0       -1.907362    0.156617   -0.354293
     11          6           0       -2.920772   -0.983670   -0.252421
     12          1           0       -2.914207   -1.377570    0.770567
     13          1           0       -2.680344   -1.796221   -0.957054
     14          8           0       -4.201283   -0.437674   -0.574957
     15          1           0       -4.846696   -1.156125   -0.495208
     16          1           0        0.524388    1.085456   -1.356969
     17          8           0        0.460743    1.766834    0.586896
     18          1           0        0.279038    2.573020    0.084093
     19          1           0       -0.336702   -1.196839   -0.831414
     20          8           0       -0.432413   -0.894842    1.217616
     21          1           0       -0.308788   -1.852400    1.164900
     22          1           0       -1.983462    0.574713   -1.366783
     23          8           0       -2.289705    1.097020    0.652592
     24          1           0       -2.557026    1.922204    0.222603
 ---------------------------------------------------------------------
 Rotational constants (GHZ):      2.0040322      0.4151178      0.3744574
 Standard basis: 6-31G(d) (6D, 7F)
 There are   204 symmetry adapted basis functions of A   symmetry.
 Integral buffers will be    131072 words long.
 Raffenetti 2 integral format.
 Two-electron integral symmetry is turned on.
   204 basis functions,   384 primitive gaussians,   204 cartesian basis functions
    48 alpha electrons       48 beta electrons
       nuclear repulsion energy       773.1967870895 Hartrees.
 NAtoms=   24 NActive=   24 NUniq=   24 SFac= 1.00D+00 NAtFMM=   50 NAOKFM=F Big=F
 One-electron integrals computed using PRISM.
 NBasis=   204 RedAO= T  NBF=   204
 NBsUse=   204 1.00D-06 NBFU=   204
 Initial guess read from the read-write file.
 B after Tr=     0.000000    0.000000    0.000000
         Rot=    1.000000    0.000000    0.000000    0.000000 Ang=   0.00 deg.
 Initial guess orbital symmetries:
       Occupied  (A) (A) (A) (A) (A) (A) (A) (A) (A) (A) (A) (A)
                 (A) (A) (A) (A) (A) (A) (A) (A) (A) (A) (A) (A)
                 (A) (A) (A) (A) (A) (A) (A) (A) (A) (A) (A) (A)
                 (A) (A) (A) (A) (A) (A) (A) (A) (A) (A) (A) (A)
       Virtual   (A) (A) (A) (A) (A) (A) (A) (A) (A) (A) (A) (A)
                 (A) (A) (A) (A) (A) (A) (A) (A) (A) (A) (A) (A)
                 (A) (A) (A) (A) (A) (A) (A) (A) (A) (A) (A) (A)
                 (A) (A) (A) (A) (A) (A) (A) (A) (A) (A) (A) (A)
                 (A) (A) (A) (A) (A) (A) (A) (A) (A) (A) (A) (A)
                 (A) (A) (A) (A) (A) (A) (A) (A) (A) (A) (A) (A)
                 (A) (A) (A) (A) (A) (A) (A) (A) (A) (A) (A) (A)
                 (A) (A) (A) (A) (A) (A) (A) (A) (A) (A) (A) (A)
                 (A) (A) (A) (A) (A) (A) (A) (A) (A) (A) (A) (A)
                 (A) (A) (A) (A) (A) (A) (A) (A) (A) (A) (A) (A)
                 (A) (A) (A) (A) (A) (A) (A) (A) (A) (A) (A) (A)
                 (A) (A) (A) (A) (A) (A) (A) (A) (A) (A) (A) (A)
                 (A) (A) (A) (A) (A) (A) (A) (A) (A) (A) (A) (A)
 Harris functional with IExCor=  402 diagonalized for initial guess.
 ExpMin= 1.61D-01 ExpMax= 5.48D+03 ExpMxC= 8.25D+02 IAcc=1 IRadAn=         1 AccDes= 0.00D+00
 HarFok:  IExCor=  402 AccDes= 0.00D+00 IRadAn=         1 IDoV= 1
 ScaDFX=  1.000000  1.000000  1.000000  1.000000
 FoFCou: FMM=F IPFlag=           0 FMFlag=      100000 FMFlg1=           0
         NFxFlg=           0 DoJE=T BraDBF=F KetDBF=T FulRan=T
         Omega=  0.000000  0.000000  1.000000  0.000000  0.000000 ICntrl=     500 IOpCl=  0
         NMat0=    1 NMatS0=    1 NMatT0=    0 NMatD0=    1 NMtDS0=    0 NMtDT0=    0
         I1Cent=           4 NGrid=           0.
 Petite list used in FoFCou.
 Requested convergence on RMS density matrix=1.00D-08 within 128 cycles.
 Requested convergence on MAX density matrix=1.00D-06.
 Requested convergence on             energy=1.00D-06.
 No special actions if energy rises.
 Keep R1 ints in memory in canonical form, NReq=223281151.
 Integral accuracy reduced to 1.0D-05 until final iterations.
 Initial convergence to 1.0D-05 achieved.  Increase integral accuracy.
 SCF Done:  E(RB3LYP) =  -687.086799255     A.U. after   13 cycles
             Convg  =    0.7774D-08             -V/T =  2.0087
 Calling FoFJK, ICntrl=      2127 FMM=F ISym2X=0 I1Cent= 0 IOpClX= 0 NMat=1 NMatS=1 NMatT=0.
 ***** Axes restored to original set *****
 -------------------------------------------------------------------
 Center     Atomic                   Forces (Hartrees/Bohr)
 Number     Number              X              Y              Z
 -------------------------------------------------------------------
      1        6          -0.001728075    0.003714759    0.007886653
      2        8          -0.001173191    0.000628706   -0.003260739
      3        1           0.000026614   -0.000540916   -0.000760393
      4        1           0.005312992   -0.004230878   -0.007056916
      5        1           0.003015193   -0.001816355   -0.005249858
      6        6          -0.006985308    0.004207441    0.011262282
      7        8           0.004358163   -0.001446403   -0.009026207
      8        6          -0.003644803   -0.003437189   -0.012052744
      9        6           0.003239496   -0.005424769    0.005931106
     10        6           0.002147555   -0.008174155   -0.005110342
     11        6           0.000474707    0.004887851   -0.008290524
     12        1          -0.000485439   -0.000516837    0.002496070
     13        1           0.000521780   -0.000016611    0.003936425
     14        8           0.000184512    0.001897290    0.002099714
     15        1          -0.000818756   -0.000780395   -0.000405767
     16        1           0.003478702    0.003255208   -0.000654377
     17        8           0.001065389   -0.000649954    0.001509542
     18        1           0.000931625   -0.000860160    0.002582421
     19        1          -0.003107908    0.003256145    0.003028683
     20        8          -0.002278222    0.000067148    0.007930538
     21        1          -0.000169135    0.000166766   -0.000125094
     22        1          -0.002791727   -0.000048511   -0.000059079
     23        8          -0.004192224    0.005735357    0.003193650
     24        1           0.002618063    0.000126462    0.000194956
 -------------------------------------------------------------------
 Cartesian Forces:  Max     0.012052744 RMS     0.004082642

 GradGradGradGradGradGradGradGradGradGradGradGradGradGradGradGradGradGrad
 Berny optimization.
 Using GEDIIS/GDIIS optimizer.
 Internal  Forces:  Max     0.018909768 RMS     0.004281937
 Search for a local minimum.
 Step number   2 out of a maximum of  125
 All quantities printed in internal units (Hartrees-Bohrs-Radians)
 Mixed Optimization -- RFO/linear search
 Update second derivatives using D2CorX and points    1    2
 DE= -1.15D-02 DEPred=-2.90D-02 R= 3.98D-01
 Trust test= 3.98D-01 RLast= 4.67D-01 DXMaxT set to 3.00D-01
 ITU=  0  0
 Use linear search instead of GDIIS.
     Eigenvalues ---    0.00236   0.00306   0.00383   0.00400   0.00488
     Eigenvalues ---    0.00563   0.01330   0.01374   0.01381   0.01397
     Eigenvalues ---    0.01513   0.03845   0.04075   0.04589   0.04781
     Eigenvalues ---    0.04869   0.05181   0.05446   0.05865   0.06541
     Eigenvalues ---    0.07032   0.07466   0.07655   0.09058   0.10939
     Eigenvalues ---    0.11192   0.13547   0.13851   0.15975   0.16000
     Eigenvalues ---    0.16000   0.16000   0.16007   0.16042   0.17624
     Eigenvalues ---    0.19079   0.19656   0.19910   0.21761   0.22077
     Eigenvalues ---    0.22276   0.24718   0.28139   0.28487   0.29358
     Eigenvalues ---    0.29519   0.30678   0.33906   0.34083   0.34189
     Eigenvalues ---    0.34192   0.34235   0.34350   0.34515   0.39938
     Eigenvalues ---    0.41494   0.41833   0.42081   0.42945   0.45650
     Eigenvalues ---    0.52678   0.52854   0.52881   0.52907   0.53019
     Eigenvalues ---    0.88585
 RFO step:  Lambda=-6.60518355D-03 EMin= 2.35541788D-03
 Quartic linear search produced a step of -0.25509.
 Iteration  1 RMS(Cart)=  0.11693256 RMS(Int)=  0.00373634
 Iteration  2 RMS(Cart)=  0.00739042 RMS(Int)=  0.00054364
 Iteration  3 RMS(Cart)=  0.00002556 RMS(Int)=  0.00054352
 Iteration  4 RMS(Cart)=  0.00000001 RMS(Int)=  0.00054352
 Variable       Old X    -DE/DX   Delta X   Delta X   Delta X     New X
                                 (Linear)    (Quad)   (Total)
    R1        2.68065  -0.00365  -0.00242  -0.00127  -0.00369   2.67696
    R2        2.06124   0.00720   0.00107   0.01309   0.01416   2.07540
    R3        2.08161   0.00212  -0.00449   0.01338   0.00889   2.09050
    R4        2.87628   0.00034  -0.00261   0.00590   0.00330   2.87958
    R5        1.83163  -0.00035   0.00156  -0.00366  -0.00210   1.82953
    R6        2.29844  -0.00840   0.00756  -0.02263  -0.01507   2.28337
    R7        2.94182  -0.00600  -0.01403   0.01269  -0.00134   2.94048
    R8        2.94329  -0.01240  -0.01026  -0.01120  -0.02146   2.92183
    R9        2.07797   0.00105  -0.00210   0.00639   0.00429   2.08226
   R10        2.69766  -0.00074  -0.00256   0.00386   0.00130   2.69896
   R11        2.91786   0.00247  -0.00189   0.00996   0.00807   2.92593
   R12        2.07864   0.00144  -0.00110   0.00526   0.00416   2.08280
   R13        2.71486  -0.00023  -0.00581   0.01128   0.00547   2.72033
   R14        2.88926   0.00036   0.00002   0.00086   0.00087   2.89013
   R15        2.07503   0.00149  -0.00113   0.00541   0.00428   2.07931
   R16        2.70195  -0.00531  -0.00119  -0.00699  -0.00818   2.69378
   R17        2.07156   0.00052  -0.00056   0.00221   0.00165   2.07321
   R18        2.08261   0.00140  -0.00418   0.01126   0.00707   2.08968
   R19        2.70029  -0.00136  -0.00237   0.00238   0.00002   2.70031
   R20        1.83127  -0.00052   0.00158  -0.00395  -0.00237   1.82890
   R21        1.82802  -0.00203   0.00260  -0.00812  -0.00553   1.82250
   R22        1.82726  -0.00014   0.00240  -0.00511  -0.00270   1.82456
   R23        1.82950  -0.00231   0.00207  -0.00743  -0.00536   1.82414
    A1        1.92876   0.00413  -0.00862   0.04391   0.03532   1.96408
    A2        1.92339   0.00323  -0.00753   0.03714   0.02961   1.95301
    A3        1.89896  -0.00017   0.00714  -0.00850  -0.00133   1.89762
    A4        1.91681  -0.00342   0.00249  -0.03656  -0.03465   1.88216
    A5        1.89458  -0.00247   0.00404  -0.02258  -0.01877   1.87581
    A6        1.90079  -0.00143   0.00260  -0.01489  -0.01253   1.88826
    A7        1.87148  -0.00136   0.00120  -0.00821  -0.00701   1.86447
    A8        2.07318   0.01589   0.01143   0.02499   0.03429   2.10746
    A9        2.16338  -0.01879  -0.03070   0.00538  -0.02731   2.13607
   A10        2.04624   0.00292   0.01929  -0.02763  -0.01022   2.03602
   A11        2.13427  -0.01891  -0.03027  -0.02889  -0.05961   2.07466
   A12        1.79308   0.00623   0.01812  -0.00609   0.01108   1.80416
   A13        1.84802   0.00281   0.01143  -0.02668  -0.01426   1.83376
   A14        1.87167   0.00132   0.01459  -0.01846  -0.00560   1.86607
   A15        1.90944   0.00957  -0.00507   0.03120   0.02529   1.93473
   A16        1.89494  -0.00002  -0.00705   0.05942   0.05242   1.94736
   A17        1.99441  -0.00045   0.00540  -0.00703  -0.00181   1.99260
   A18        1.90979  -0.00201   0.01111  -0.05394  -0.04218   1.86761
   A19        1.93677  -0.00561  -0.02569   0.02436  -0.00156   1.93520
   A20        1.84885  -0.00076   0.00728  -0.00588   0.00128   1.85013
   A21        1.86909   0.00821   0.01248   0.02330   0.03551   1.90460
   A22        1.90109   0.00108  -0.01119   0.02068   0.00920   1.91029
   A23        1.92861  -0.00137   0.00599  -0.00934  -0.00351   1.92510
   A24        1.91201  -0.00040   0.00524  -0.02077  -0.01552   1.89649
   A25        1.94461   0.00003  -0.00659   0.01699   0.01004   1.95465
   A26        1.87494  -0.00061   0.00239  -0.00941  -0.00687   1.86807
   A27        1.84041   0.00438  -0.01507   0.05411   0.03891   1.87932
   A28        1.96099  -0.00194   0.00744  -0.03006  -0.02261   1.93838
   A29        1.90307  -0.00198   0.00929  -0.02883  -0.01962   1.88345
   A30        1.94194  -0.00183   0.00272  -0.01720  -0.01455   1.92739
   A31        1.86917  -0.00081   0.00766  -0.01626  -0.00858   1.86059
   A32        1.90755   0.00017   0.00088  -0.00414  -0.00348   1.90407
   A33        1.93190   0.00245  -0.01322   0.03978   0.02661   1.95851
   A34        1.91018   0.00199  -0.00795   0.02689   0.01892   1.92910
   A35        1.87023   0.00129  -0.00055   0.00672   0.00617   1.87640
   A36        1.89062   0.00055  -0.00248   0.00687   0.00439   1.89501
   A37        1.89098  -0.00039  -0.00171   0.00131  -0.00040   1.89058
   A38        1.89828  -0.00112  -0.00382   0.00186  -0.00196   1.89632
    D1        1.05771   0.00015  -0.00268  -0.00348  -0.00615   1.05156
    D2       -1.06403  -0.00043   0.00429  -0.01132  -0.00704  -1.07107
    D3        3.13624  -0.00051   0.00137  -0.01011  -0.00873   3.12751
    D4       -0.04301  -0.00061   0.00343  -0.02726  -0.02459  -0.06760
    D5        3.06801   0.00025   0.01785   0.08186   0.10049  -3.11468
    D6        2.05678   0.00282  -0.00033   0.00749   0.00613   2.06291
    D7       -1.11538   0.00368   0.01409   0.11660   0.13121  -0.98417
    D8       -2.13997  -0.00358   0.00672  -0.05840  -0.05221  -2.19218
    D9        0.97105  -0.00272   0.02114   0.05071   0.07287   1.04392
   D10       -0.04269  -0.00317   0.00425  -0.11468  -0.10997  -0.15266
   D11       -2.13961   0.00157  -0.00995  -0.06656  -0.07608  -2.21569
   D12        2.15711  -0.00201  -0.01519  -0.11974  -0.13324   2.02386
   D13        3.06877  -0.00210   0.01858  -0.00628   0.01104   3.07981
   D14        0.97185   0.00264   0.00437   0.04184   0.04492   1.01677
   D15       -1.01462  -0.00094  -0.00087  -0.01134  -0.01224  -1.02686
   D16       -3.04039   0.00338  -0.03110  -0.01523  -0.04701  -3.08740
   D17       -0.97091   0.00070  -0.00909  -0.06533  -0.07526  -1.04617
   D18        1.12742  -0.00280  -0.03171  -0.05925  -0.09143   1.03600
   D19       -0.98135   0.00008  -0.01605  -0.05966  -0.07553  -1.05688
   D20        1.08813  -0.00260   0.00597  -0.10975  -0.10378   0.98435
   D21       -3.09672  -0.00610  -0.01666  -0.10367  -0.11995   3.06652
   D22        1.07065   0.00590  -0.01916   0.01721  -0.00148   1.06917
   D23        3.14013   0.00322   0.00286  -0.03288  -0.02973   3.11040
   D24       -1.04472  -0.00028  -0.01977  -0.02680  -0.04590  -1.09062
   D25        1.91541   0.00670   0.02284  -0.02531  -0.00249   1.91292
   D26       -2.03689  -0.00853  -0.01078  -0.05994  -0.07122  -2.10811
   D27        0.00045  -0.00167  -0.00011  -0.03126  -0.03085  -0.03040
   D28        3.04528  -0.00325   0.02863  -0.09314  -0.06464   2.98065
   D29        0.98286  -0.00142   0.01842  -0.06321  -0.04490   0.93796
   D30       -1.19795   0.00134   0.00975  -0.02147  -0.01184  -1.20979
   D31        0.94155   0.00006   0.00529  -0.01750  -0.01219   0.92936
   D32       -1.12088   0.00188  -0.00493   0.01244   0.00755  -1.11333
   D33        2.98150   0.00464  -0.01359   0.05418   0.04060   3.02211
   D34       -1.08554  -0.00466   0.00838  -0.04929  -0.04083  -1.12637
   D35        3.13522  -0.00284  -0.00184  -0.01936  -0.02109   3.11413
   D36        0.95442  -0.00008  -0.01050   0.02238   0.01196   0.96638
   D37       -2.12205   0.00220   0.01196   0.02749   0.04022  -2.08183
   D38        1.97360   0.00077   0.01381   0.00447   0.01838   1.99198
   D39       -0.01855  -0.00309   0.00473  -0.01079  -0.00694  -0.02548
   D40        1.12156   0.00065  -0.00579   0.04782   0.04221   1.16376
   D41       -0.98370   0.00290  -0.01515   0.08277   0.06767  -0.91603
   D42       -3.07052   0.00203  -0.01185   0.07004   0.05826  -3.01226
   D43       -3.07667  -0.00098   0.00580   0.01162   0.01748  -3.05919
   D44        1.10127   0.00126  -0.00356   0.04656   0.04294   1.14420
   D45       -0.98556   0.00039  -0.00027   0.03383   0.03353  -0.95203
   D46       -0.98187  -0.00125   0.00776   0.00025   0.00799  -0.97388
   D47       -3.08712   0.00099  -0.00160   0.03519   0.03345  -3.05367
   D48        1.10924   0.00012   0.00169   0.02246   0.02404   1.13328
   D49        2.16996  -0.00036   0.00309   0.00009   0.00316   2.17312
   D50       -2.02032   0.00068  -0.00171   0.03118   0.02958  -1.99075
[...]
    23  O    2.400392   2.687443   3.357837   2.672564   3.426945
    24  H    2.381211   2.736019   3.402191   2.109732   2.806687
                   16         17         18         19         20
    16  H    0.000000
    17  O    2.087481   0.000000
    18  H    2.467851   0.977418   0.000000
    19  H    2.385266   3.391249   3.519237   0.000000
    20  O    3.378896   2.988255   3.002986   2.076698   0.000000
    21  H    3.567230   3.288000   3.563877   2.243141   0.972988
    22  H    2.580739   3.485079   3.061784   2.349045   3.329343
    23  O    3.215498   2.686833   1.837063   3.338253   2.946608
    24  H    4.051724   3.622342   2.719232   4.032379   3.684545
                   21         22         23         24
    21  H    0.000000
    22  H    4.016722   0.000000
    23  O    3.831272   2.072612   0.000000
    24  H    4.621610   2.393036   0.973928   0.000000
 Stoichiometry    C6H12O6
 Framework group  C1[X(C6H12O6)]
 Deg. of freedom    66
 Full point group                 C1      NOp   1
 Largest Abelian subgroup         C1      NOp   1
 Largest concise Abelian subgroup C1      NOp   1
                         Standard orientation:                         
 ---------------------------------------------------------------------
 Center     Atomic      Atomic             Coordinates (Angstroms)
 Number     Number       Type             X           Y           Z
 ---------------------------------------------------------------------
      1          6           0        3.208378    0.614082   -0.142826
      2          8           0        4.373929   -0.177241   -0.124621
      3          1           0        5.120846    0.411254    0.058863
      4          1           0        3.170773    1.303072   -1.004876
      5          1           0        3.091945    1.239625    0.755779
      6          6           0        1.982750   -0.281123   -0.200390
      7          8           0        2.047150   -1.490836   -0.086247
      8          6           0        0.642745    0.447389   -0.392436
      9          6           0       -0.538831   -0.529940   -0.202206
     10          6           0       -1.891447    0.141081   -0.452702
     11          6           0       -3.069689   -0.774464   -0.135488
     12          1           0       -2.988566   -1.112749    0.902540
     13          1           0       -3.066188   -1.651168   -0.799189
     14          8           0       -4.241923    0.025630   -0.339025
     15          1           0       -4.974722   -0.378277    0.147777
     16          1           0        0.613268    0.793205   -1.446602
     17          8           0        0.665742    1.546218    0.499623
     18          1           0       -0.262472    1.830048    0.614544
     19          1           0       -0.426804   -1.302301   -0.981204
     20          8           0       -0.544979   -1.122482    1.084316
     21          1           0        0.266789   -1.657553    1.122223
     22          1           0       -1.938257    0.413113   -1.520535
     23          8           0       -2.007167    1.324905    0.339467
     24          1           0       -2.952061    1.560038    0.318862
 ---------------------------------------------------------------------
 Rotational constants (GHZ):      2.4958430      0.4148955      0.3785757

 **********************************************************************

            Population analysis using the SCF density.

 **********************************************************************

 Orbital symmetries:
       Occupied  (A) (A) (A) (A) (A) (A) (A) (A) (A) (A) (A) (A)
                 (A) (A) (A) (A) (A) (A) (A) (A) (A) (A) (A) (A)
                 (A) (A) (A) (A) (A) (A) (A) (A) (A) (A) (A) (A)
                 (A) (A) (A) (A) (A) (A) (A) (A) (A) (A) (A) (A)
       Virtual   (A) (A) (A) (A) (A) (A) (A) (A) (A) (A) (A) (A)
                 (A) (A) (A) (A) (A) (A) (A) (A) (A) (A) (A) (A)
                 (A) (A) (A) (A) (A) (A) (A) (A) (A) (A) (A) (A)
                 (A) (A) (A) (A) (A) (A) (A) (A) (A) (A) (A) (A)
                 (A) (A) (A) (A) (A) (A) (A) (A) (A) (A) (A) (A)
                 (A) (A) (A) (A) (A) (A) (A) (A) (A) (A) (A) (A)
                 (A) (A) (A) (A) (A) (A) (A) (A) (A) (A) (A) (A)
                 (A) (A) (A) (A) (A) (A) (A) (A) (A) (A) (A) (A)
                 (A) (A) (A) (A) (A) (A) (A) (A) (A) (A) (A) (A)
                 (A) (A) (A) (A) (A) (A) (A) (A) (A) (A) (A) (A)
                 (A) (A) (A) (A) (A) (A) (A) (A) (A) (A) (A) (A)
                 (A) (A) (A) (A) (A) (A) (A) (A) (A) (A) (A) (A)
                 (A) (A) (A) (A) (A) (A) (A) (A) (A) (A) (A) (A)
 The electronic state is 1-A.
 Alpha  occ. eigenvalues --  -19.16708 -19.15778 -19.15259 -19.14948 -19.13961
 Alpha  occ. eigenvalues --  -19.13646 -10.28152 -10.24722 -10.24478 -10.24339
 Alpha  occ. eigenvalues --  -10.24134 -10.24001  -1.05918  -1.04933  -1.02802
 Alpha  occ. eigenvalues --   -1.02025  -1.01128  -1.00697  -0.78143  -0.74954
 Alpha  occ. eigenvalues --   -0.71264  -0.65497  -0.58672  -0.54931  -0.53455
 Alpha  occ. eigenvalues --   -0.52732  -0.52092  -0.51507  -0.48978  -0.47438
 Alpha  occ. eigenvalues --   -0.46133  -0.45479  -0.43764  -0.42681  -0.41940
 Alpha  occ. eigenvalues --   -0.40485  -0.37679  -0.36758  -0.36343  -0.35012
 Alpha  occ. eigenvalues --   -0.34183  -0.32910  -0.29244  -0.28516  -0.28124
 Alpha  occ. eigenvalues --   -0.27438  -0.25630  -0.24792
 Alpha virt. eigenvalues --   -0.02457   0.05077   0.06598   0.08144   0.11219
 Alpha virt. eigenvalues --    0.12405   0.12722   0.13957   0.15607   0.16038
 Alpha virt. eigenvalues --    0.16544   0.17260   0.18428   0.18822   0.20256
 Alpha virt. eigenvalues --    0.21073   0.22060   0.22448   0.25158   0.27189
 Alpha virt. eigenvalues --    0.28714   0.31863   0.34901   0.39168   0.51620
 Alpha virt. eigenvalues --    0.53405   0.54547   0.55504   0.57011   0.57914
 Alpha virt. eigenvalues --    0.58280   0.59678   0.62003   0.64649   0.66422
 Alpha virt. eigenvalues --    0.67075   0.68412   0.69568   0.73011   0.75566
 Alpha virt. eigenvalues --    0.76192   0.78313   0.80431   0.80679   0.81573
 Alpha virt. eigenvalues --    0.81722   0.82491   0.83283   0.85967   0.86961
 Alpha virt. eigenvalues --    0.89064   0.89302   0.90613   0.92231   0.92898
 Alpha virt. eigenvalues --    0.93683   0.95085   0.96503   0.97379   1.00454
 Alpha virt. eigenvalues --    1.01394   1.02736   1.04080   1.06302   1.06609
 Alpha virt. eigenvalues --    1.09631   1.11786   1.14885   1.16587   1.20867
 Alpha virt. eigenvalues --    1.22477   1.24990   1.27845   1.29356   1.30308
 Alpha virt. eigenvalues --    1.32904   1.35981   1.39469   1.41811   1.44706
 Alpha virt. eigenvalues --    1.46709   1.49458   1.53045   1.56876   1.60177
 Alpha virt. eigenvalues --    1.62875   1.65891   1.66537   1.69620   1.70429
 Alpha virt. eigenvalues --    1.70936   1.73309   1.73604   1.75108   1.76179
 Alpha virt. eigenvalues --    1.79689   1.80939   1.81609   1.82848   1.85872
 Alpha virt. eigenvalues --    1.87726   1.91484   1.94848   1.95058   1.97211
 Alpha virt. eigenvalues --    1.99540   2.02049   2.03229   2.04807   2.05901
 Alpha virt. eigenvalues --    2.08817   2.10001   2.13181   2.14013   2.18048
 Alpha virt. eigenvalues --    2.20378   2.23025   2.27705   2.30827   2.34647
 Alpha virt. eigenvalues --    2.37484   2.38581   2.39097   2.41750   2.44269
 Alpha virt. eigenvalues --    2.45276   2.49240   2.49434   2.52295   2.55005
 Alpha virt. eigenvalues --    2.58785   2.62263   2.62699   2.65217   2.69813
 Alpha virt. eigenvalues --    2.72606   2.83394   2.84887   2.87453   2.90879
 Alpha virt. eigenvalues --    2.92508   2.95771   3.02207   3.08349   3.74810
 Alpha virt. eigenvalues --    3.76766   3.81204   3.86255   3.88633   4.03970
 Alpha virt. eigenvalues --    4.20012   4.28898   4.40192   4.48106   4.52937
 Alpha virt. eigenvalues --    4.66872
          Condensed to atoms (all electrons):
              1          2          3          4          5          6
     1  C    5.065384   0.247893  -0.023886   0.353734   0.352156   0.294407
     2  O    0.247893   8.216807   0.235124  -0.039238  -0.031446  -0.036431
     3  H   -0.023886   0.235124   0.391005  -0.002253  -0.005479   0.006334
     4  H    0.353734  -0.039238  -0.002253   0.623118  -0.046422  -0.046143
     5  H    0.352156  -0.031446  -0.005479  -0.046422   0.564373  -0.027303
     6  C    0.294407  -0.036431   0.006334  -0.046143  -0.027303   4.659242
     7  O   -0.071395   0.002111   0.000162   0.001195  -0.000567   0.543616
     8  C   -0.118481   0.002037  -0.000226   0.010665   0.000024   0.272262
     9  C    0.006876  -0.000018   0.000003   0.000035  -0.000291  -0.021792
    10  C   -0.000029   0.000000   0.000000  -0.000004   0.000002   0.003499
    11  C    0.000001   0.000000   0.000000   0.000000   0.000000  -0.000091
    12  H    0.000000   0.000000   0.000000   0.000000   0.000000  -0.000002
    13  H    0.000000   0.000000   0.000000   0.000000   0.000000   0.000003
    14  O    0.000000   0.000000   0.000000   0.000000   0.000000   0.000000
    15  H    0.000000   0.000000   0.000000   0.000000   0.000000   0.000000
    16  H   -0.001833  -0.000040  -0.000002   0.001060   0.000861  -0.043161
    17  O    0.005074   0.000078   0.000009  -0.000742   0.009368  -0.046523
    18  H   -0.000347  -0.000001   0.000000  -0.000055   0.000182   0.003676
    19  H    0.000298  -0.000004   0.000000  -0.000029  -0.000009  -0.001330
    20  O   -0.000104   0.000000   0.000000  -0.000002   0.000055   0.000784
    21  H    0.000627  -0.000004   0.000000  -0.000002  -0.000087   0.001781
    22  H    0.000002   0.000000   0.000000  -0.000001   0.000000  -0.000135
    23  O    0.000000   0.000000   0.000000   0.000001   0.000000  -0.000043
    24  H    0.000000   0.000000   0.000000   0.000000   0.000000   0.000012
              7          8          9         10         11         12
     1  C   -0.071395  -0.118481   0.006876  -0.000029   0.000001   0.000000
     2  O    0.002111   0.002037  -0.000018   0.000000   0.000000   0.000000
     3  H    0.000162  -0.000226   0.000003   0.000000   0.000000   0.000000
     4  H    0.001195   0.010665   0.000035  -0.000004   0.000000   0.000000
     5  H   -0.000567   0.000024  -0.000291   0.000002   0.000000   0.000000
     6  C    0.543616   0.272262  -0.021792   0.003499  -0.000091  -0.000002
     7  O    8.022086  -0.079695   0.006116   0.000541   0.000004   0.000001
     8  C   -0.079695   5.191401   0.280976  -0.027084   0.004693   0.000188
     9  C    0.006116   0.280976   4.940855   0.328874  -0.030135  -0.010039
    10  C    0.000541  -0.027084   0.328874   4.895253   0.356134  -0.028305
    11  C    0.000004   0.004693  -0.030135   0.356134   4.927254   0.358725
    12  H    0.000001   0.000188  -0.010039  -0.028305   0.358725   0.571893
    13  H   -0.000001  -0.000173   0.000719  -0.039912   0.347819  -0.043669
    14  O    0.000000  -0.000019   0.002273  -0.049496   0.231579  -0.033477
    15  H    0.000000   0.000004  -0.000224   0.005417  -0.021931  -0.006349
    16  H    0.002187   0.319941  -0.051031  -0.004685  -0.000120  -0.000011
    17  O    0.000883   0.230519  -0.027438  -0.005944  -0.000088  -0.000010
    18  H   -0.000120  -0.027695  -0.007830  -0.005922   0.000664   0.000006
    19  H    0.005514  -0.058580   0.344387  -0.051187  -0.005724   0.000243
    20  O   -0.010052  -0.050131   0.241151  -0.051086  -0.006135   0.013993
    21  H    0.028282  -0.009102  -0.025554   0.006810   0.000323  -0.000387
    22  H    0.000009  -0.005039  -0.050351   0.360928  -0.050833   0.006778
    23  O   -0.000001  -0.003633  -0.036363   0.208070  -0.034751  -0.000522
    24  H    0.000000  -0.000020   0.006682  -0.035790  -0.013069  -0.000492
             13         14         15         16         17         18
     1  C    0.000000   0.000000   0.000000  -0.001833   0.005074  -0.000347
     2  O    0.000000   0.000000   0.000000  -0.000040   0.000078  -0.000001
     3  H    0.000000   0.000000   0.000000  -0.000002   0.000009   0.000000
     4  H    0.000000   0.000000   0.000000   0.001060  -0.000742  -0.000055
     5  H    0.000000   0.000000   0.000000   0.000861   0.009368   0.000182
     6  C    0.000003   0.000000   0.000000  -0.043161  -0.046523   0.003676
     7  O   -0.000001   0.000000   0.000000   0.002187   0.000883  -0.000120
     8  C   -0.000173  -0.000019   0.000004   0.319941   0.230519  -0.027695
     9  C    0.000719   0.002273  -0.000224  -0.051031  -0.027438  -0.007830
    10  C   -0.039912  -0.049496   0.005417  -0.004685  -0.005944  -0.005922
    11  C    0.347819   0.231579  -0.021931  -0.000120  -0.000088   0.000664
    12  H   -0.043669  -0.033477  -0.006349  -0.000011  -0.000010   0.000006
    13  H    0.636165  -0.039693  -0.000106  -0.000003   0.000004  -0.000021
    14  O   -0.039693   8.263987   0.238005  -0.000001   0.000000   0.000013
    15  H   -0.000106   0.238005   0.380262   0.000000   0.000000   0.000000
    16  H   -0.000003  -0.000001   0.000000   0.677344  -0.039748  -0.000250
    17  O    0.000004   0.000000   0.000000  -0.039748   8.318044   0.232702
    18  H   -0.000021   0.000013   0.000000  -0.000250   0.232702   0.312867
    19  H    0.004036  -0.000028  -0.000001   0.007563   0.003576   0.000131
    20  O    0.000032   0.000057   0.000009   0.003507   0.000284   0.001249
    21  H   -0.000069   0.000000  -0.000001   0.000301   0.000635  -0.000135
    22  H   -0.002163   0.000515  -0.000210   0.003268  -0.000022   0.000456
    23  O    0.003762  -0.010432   0.000416   0.000324  -0.016961   0.049938
    24  H    0.001189   0.037212  -0.001699  -0.000022   0.000560  -0.001156
             19         20         21         22         23         24
     1  C    0.000298  -0.000104   0.000627   0.000002   0.000000   0.000000
     2  O   -0.000004   0.000000  -0.000004   0.000000   0.000000   0.000000
     3  H    0.000000   0.000000   0.000000   0.000000   0.000000   0.000000
     4  H   -0.000029  -0.000002  -0.000002  -0.000001   0.000001   0.000000
     5  H   -0.000009   0.000055  -0.000087   0.000000   0.000000   0.000000
     6  C   -0.001330   0.000784   0.001781  -0.000135  -0.000043   0.000012
     7  O    0.005514  -0.010052   0.028282   0.000009  -0.000001   0.000000
     8  C   -0.058580  -0.050131  -0.009102  -0.005039  -0.003633  -0.000020
     9  C    0.344387   0.241151  -0.025554  -0.050351  -0.036363   0.006682
    10  C   -0.051187  -0.051086   0.006810   0.360928   0.208070  -0.035790
    11  C   -0.005724  -0.006135   0.000323  -0.050833  -0.034751  -0.013069
    12  H    0.000243   0.013993  -0.000387   0.006778  -0.000522  -0.000492
    13  H    0.004036   0.000032  -0.000069  -0.002163   0.003762   0.001189
    14  O   -0.000028   0.000057   0.000000   0.000515  -0.010432   0.037212
    15  H   -0.000001   0.000009  -0.000001  -0.000210   0.000416  -0.001699
    16  H    0.007563   0.003507   0.000301   0.003268   0.000324  -0.000022
    17  O    0.003576   0.000284   0.000635  -0.000022  -0.016961   0.000560
    18  H    0.000131   0.001249  -0.000135   0.000456   0.049938  -0.001156
    19  H    0.659227  -0.035477  -0.005392   0.001284   0.003605  -0.000196
    20  O   -0.035477   8.298602   0.231015   0.003194   0.001660  -0.000201
    21  H   -0.005392   0.231015   0.355160  -0.000237  -0.000114   0.000017
    22  H    0.001284   0.003194  -0.000237   0.647569  -0.043934  -0.000878
    23  O    0.003605   0.001660  -0.000114  -0.043934   8.313295   0.234810
    24  H   -0.000196  -0.000201   0.000017  -0.000878   0.234810   0.353876
 Mulliken atomic charges:
              1
     1  C   -0.110377
     2  O   -0.596870
     3  H    0.399208
     4  H    0.145083
     5  H    0.184581
     6  C    0.437336
     7  O   -0.450874
     8  C    0.067167
     9  C    0.102119
    10  C    0.133915
    11  C   -0.064318
    12  H    0.171439
    13  H    0.132080
    14  O   -0.640495
    15  H    0.406407
    16  H    0.124552
    17  O   -0.664259
    18  H    0.441649
    19  H    0.128091
    20  O   -0.642404
    21  H    0.416133
    22  H    0.129800
    23  O   -0.669127
    24  H    0.419164
 Sum of Mulliken atomic charges =   0.00000
 Mulliken charges with hydrogens summed into heavy atoms:
              1
     1  C    0.219287
     2  O   -0.197662
     6  C    0.437336
     7  O   -0.450874
     8  C    0.191719
     9  C    0.230211
    10  C    0.263715
    11  C    0.239200
    14  O   -0.234088
    17  O   -0.222610
    20  O   -0.226271
    23  O   -0.249963
 Sum of Mulliken charges with hydrogens summed into heavy atoms =   0.00000
 Electronic spatial extent (au):  <R**2>=           2837.5031
 Charge=              0.0000 electrons
 Dipole moment (field-independent basis, Debye):
    X=             -2.1511    Y=              1.2506    Z=             -0.9294  Tot=              2.6561
 Quadrupole moment (field-independent basis, Debye-Ang):
   XX=            -52.1028   YY=            -72.1501   ZZ=            -70.8033
   XY=             12.6555   XZ=             -2.0445   YZ=             -0.7953
 Traceless Quadrupole moment (field-independent basis, Debye-Ang):
   XX=             12.9160   YY=             -7.1314   ZZ=             -5.7846
   XY=             12.6555   XZ=             -2.0445   YZ=             -0.7953
 Octapole moment (field-independent basis, Debye-Ang**2):
  XXX=            -23.5621  YYY=              3.2867  ZZZ=              3.8464  XYY=            -15.1239
  XXY=             30.9780  XXZ=             33.9941  XZZ=              3.8890  YZZ=              0.0197
  YYZ=              4.2216  XYZ=             -4.8814
 Hexadecapole moment (field-independent basis, Debye-Ang**3):
 XXXX=          -1978.0160 YYYY=           -425.6471 ZZZZ=           -173.7526 XXXY=            256.6168
 XXXZ=            -78.7009 YYYX=            -21.6377 YYYZ=             -0.4236 ZZZX=             -0.6366
 ZZZY=             -1.4210 XXYY=           -513.4663 XXZZ=           -497.0449 YYZZ=            -94.2717
 XXYZ=              1.0002 YYXZ=             -0.1856 ZZXY=             -6.4310
 N-N= 7.848424174488D+02 E-N=-3.181610864926D+03  KE= 6.812411300755D+02

 Test job not archived.
 1\1\GINC-TERMINUS\FOpt\RB3LYP\6-31G(d)\C6H12O6\FRODOX\04-Jan-2018\0\\#
 B3LYP/6-31G* fopt test\\Sugars/R-S-R-Fructuose.xyz\\0,1\C,-1.002928870
 6,-0.3562833865,0.6281725528\O,-0.4856446547,0.2092026798,1.8104052541
 \H,-0.8416837609,-0.298458011,2.5543104777\H,-2.0890895995,-0.19354300
 18,0.5140565865\H,-0.8464268825,-1.4440593778,0.5603435991\C,-0.305666
 4523,0.250356866,-0.5771005011\O,0.654845799,0.9905376662,-0.476448473
 5\C,-0.883156947,-0.1512187494,-1.9440182589\C,0.0391201808,0.33109284
 57,-3.0860614837\C,-0.534914864,0.010964964,-4.4683026837\C,0.42771903
 79,0.3583374614,-5.5995719537\H,1.3728136865,-0.170054057,-5.437964489
 9\H,0.6216974382,1.4404610436,-5.6219994347\O,-0.2209358148,-0.0774678
 847,-6.8016661303\H,0.4521878597,-0.1860817424,-7.4888479766\H,-1.8480
 420485,0.3857237897,-2.0554303181\O,-1.0873354237,-1.5506755251,-1.884
 3798819\H,-1.1576439779,-1.8606666549,-2.808668266\H,0.0715215671,1.43
 07356223,-3.0107932024\O,1.3444972383,-0.2099024403,-2.9880932984\H,1.
 7100533549,0.1545384286,-2.1633157896\H,-1.4537915295,0.6074232551,-4.
 5962232433\O,-0.8600265508,-1.3779094218,-4.5560003114\H,-0.9852047855
 ,-1.5560613696,-5.505277773\\Version=EM64L-G09RevB.01\State=1-A\HF=-68
 7.1330093\RMSD=3.269e-09\RMSF=1.280e-05\Dipole=-0.5534201,-0.0961521,-
 0.8811938\Quadrupole=-3.1659465,-5.7086635,8.8746099,-0.5170082,-8.764
 3622,-4.7784253\PG=C01 [X(C6H12O6)]\\@


 IF THE FACTS DO NOT CONFORM TO THE THEORY, THEY MUST BE DISPOSED OF.
 Job cpu time:  0 days  0 hours 50 minutes 19.7 seconds.
 File lengths (MBytes):  RWF=     27 Int=      0 D2E=      0 Chk=      4 Scr=      1
 Normal termination of Gaussian 09 at Thu Jan  4 16:26:02 2018.
