 Entering Gaussian System, Link 0=g09
 Input=S-R-S-Fructuose.inp
 Output=S-R-S-Fructuose.log
 Initial command:
 /usr/local/g09/l1.exe /home/g09scr/Gau-7796.inp -scrdir=/home/g09scr/
 Entering Link 1 = /usr/local/g09/l1.exe PID=      7798.
  
 Copyright (c) 1988,1990,1992,1993,1995,1998,2003,2009,2010,
            Gaussian, Inc.  All Rights Reserved.
  
 This is part of the Gaussian(R) 09 program.  It is based on
 the Gaussian(R) 03 system (copyright 2003, Gaussian, Inc.),
 the Gaussian(R) 98 system (copyright 1998, Gaussian, Inc.),
 the Gaussian(R) 94 system (copyright 1995, Gaussian, Inc.),
 the Gaussian 92(TM) system (copyright 1992, Gaussian, Inc.),
 the Gaussian 90(TM) system (copyright 1990, Gaussian, Inc.),
 the Gaussian 88(TM) system (copyright 1988, Gaussian, Inc.),
 the Gaussian 86(TM) system (copyright 1986, Carnegie Mellon
 University), and the Gaussian 82(TM) system (copyright 1983,
 Carnegie Mellon University). Gaussian is a federally registered
 trademark of Gaussian, Inc.
  
 This software contains proprietary and confidential information,
 including trade secrets, belonging to Gaussian, Inc.
  
 This software is provided under written license and may be
 used, copied, transmitted, or stored only in accord with that
 written license.
  
 The following legend is applicable only to US Government
 contracts under FAR:
  
                    RESTRICTED RIGHTS LEGEND
  
 Use, reproduction and disclosure by the US Government is
 subject to restrictions as set forth in subparagraphs (a)
 and (c) of the Commercial Computer Software - Restricted
 Rights clause in FAR 52.227-19.
  
 Gaussian, Inc.
 340 Quinnipiac St., Bldg. 40, Wallingford CT 06492
  
  
 ---------------------------------------------------------------
 Warning -- This program may not be used in any manner that
 competes with the business of Gaussian, Inc. or will provide
 assistance to any competitor of Gaussian, Inc.  The licensee
 of this program is prohibited from giving any competitor of
 Gaussian, Inc. access to this program.  By using this program,
 the user acknowledges that Gaussian, Inc. is engaged in the
 business of creating and licensing software in the field of
 computational chemistry and represents and warrants to the
 licensee that it is not a competitor of Gaussian, Inc. and that
 it will not use this program in any manner prohibited above.
 ---------------------------------------------------------------
  

 Cite this work as:
 Gaussian 09, Revision B.01,
 M. J. Frisch, G. W. Trucks, H. B. Schlegel, G. E. Scuseria, 
 M. A. Robb, J. R. Cheeseman, G. Scalmani, V. Barone, B. Mennucci, 
 G. A. Petersson, H. Nakatsuji, M. Caricato, X. Li, H. P. Hratchian, 
 A. F. Izmaylov, J. Bloino, G. Zheng, J. L. Sonnenberg, M. Hada, 
 M. Ehara, K. Toyota, R. Fukuda, J. Hasegawa, M. Ishida, T. Nakajima, 
 Y. Honda, O. Kitao, H. Nakai, T. Vreven, J. A. Montgomery, Jr., 
 J. E. Peralta, F. Ogliaro, M. Bearpark, J. J. Heyd, E. Brothers, 
 K. N. Kudin, V. N. Staroverov, T. Keith, R. Kobayashi, J. Normand, 
 K. Raghavachari, A. Rendell, J. C. Burant, S. S. Iyengar, J. Tomasi, 
 M. Cossi, N. Rega, J. M. Millam, M. Klene, J. E. Knox, J. B. Cross, 
 V. Bakken, C. Adamo, J. Jaramillo, R. Gomperts, R. E. Stratmann, 
 O. Yazyev, A. J. Austin, R. Cammi, C. Pomelli, J. W. Ochterski, 
 R. L. Martin, K. Morokuma, V. G. Zakrzewski, G. A. Voth, 
 P. Salvador, J. J. Dannenberg, S. Dapprich, A. D. Daniels, 
 O. Farkas, J. B. Foresman, J. V. Ortiz, J. Cioslowski, 
 and D. J. Fox, Gaussian, Inc., Wallingford CT, 2010.
 
 ******************************************
 Gaussian 09:  EM64L-G09RevB.01 12-Aug-2010
                 4-Jan-2018 
 ******************************************
 %nproc=4
 Will use up to    4 processors via shared memory.
 %mem=60gb
 -----------------------
 #B3LYP/6-31G* fopt test
 -----------------------
 1/14=-1,18=20,19=15,26=3,38=1/1,3;
 2/9=110,12=2,14=103,17=6,18=5,40=1/2;
 3/5=1,6=6,7=1,11=2,16=1,25=1,30=1,71=1,74=-5/1,2,3;
 4//1;
 5/5=2,38=5/2;
 6/7=2,8=2,9=2,10=2,28=1/1;
 7//1,2,3,16;
 1/14=-1,18=20,19=15/3(2);
 2/9=110/2;
 99//99;
 2/9=110/2;
 3/5=1,6=6,7=1,11=2,16=1,25=1,30=1,71=1,74=-5/1,2,3;
 4/5=5,16=3/1;
 5/5=2,38=5/2;
 7//1,2,3,16;
 1/14=-1,18=20,19=15/3(-5);
 2/9=110/2;
 6/7=2,8=2,9=2,10=2,19=2,28=1/1;
 99/9=1/99;
 --------------------------
 Sugars/S-R-S-Fructuose.xyz
 --------------------------
 Symbolic Z-matrix:
 Charge =  0 Multiplicity = 1
 C                     0.        0.        0. 
 O                     0.        0.        1.41352 
 H                     0.92749   0.        1.70592 
 H                     0.51803  -0.89725  -0.34815 
 H                     0.51786   0.89695  -0.34677 
 C                    -1.42147   0.       -0.52884 
 O                    -2.38889  -0.0311    0.23329 
 C                    -1.59838   0.00492  -2.04619 
 C                    -0.29803   0.04539  -2.86317 
 C                    -0.4755    0.02154  -4.39287 
 C                     0.86828   0.04202  -5.12195 
 H                     1.4567   -0.85196  -4.89019 
 H                     1.45026   0.93508  -4.87855 
 O                     0.62907   0.0516   -6.5257 
 H                     1.49772   0.05882  -6.96259 
 H                    -2.18688  -0.88181  -2.30501 
 O                    -2.38065   1.13973  -2.3969 
 H                    -3.22003   0.81821  -2.76877 
 H                     0.27509  -0.84763  -2.58217 
 O                     0.49379   1.16746  -2.48447 
 H                     1.31496   0.83388  -2.08567 
 H                    -0.89086  -0.93813  -4.72015 
 O                    -1.23294   1.15613  -4.81274 
 H                    -1.99454   0.83438  -5.32464 
 

 GradGradGradGradGradGradGradGradGradGradGradGradGradGradGradGradGradGrad
 Berny optimization.
 Initialization pass.
                           ----------------------------
                           !    Initial Parameters    !
                           ! (Angstroms and Degrees)  !
 --------------------------                            --------------------------
 ! Name  Definition              Value          Derivative Info.                !
 --------------------------------------------------------------------------------
 ! R1    R(1,2)                  1.4135         estimate D2E/DX2                !
 ! R2    R(1,4)                  1.093          estimate D2E/DX2                !
 ! R3    R(1,5)                  1.0922         estimate D2E/DX2                !
 ! R4    R(1,6)                  1.5167         estimate D2E/DX2                !
 ! R5    R(2,3)                  0.9725         estimate D2E/DX2                !
 ! R6    R(6,7)                  1.232          estimate D2E/DX2                !
 ! R7    R(6,8)                  1.5276         estimate D2E/DX2                !
 ! R8    R(8,9)                  1.5362         estimate D2E/DX2                !
 ! R9    R(8,16)                 1.0953         estimate D2E/DX2                !
 ! R10   R(8,17)                 1.4222         estimate D2E/DX2                !
 ! R11   R(9,10)                 1.5401         estimate D2E/DX2                !
 ! R12   R(9,19)                 1.0977         estimate D2E/DX2                !
 ! R13   R(9,20)                 1.4246         estimate D2E/DX2                !
 ! R14   R(10,11)                1.529          estimate D2E/DX2                !
 ! R15   R(10,22)                1.0957         estimate D2E/DX2                !
 ! R16   R(10,23)                1.4273         estimate D2E/DX2                !
 ! R17   R(11,12)                1.0951         estimate D2E/DX2                !
 ! R18   R(11,13)                1.0934         estimate D2E/DX2                !
 ! R19   R(11,14)                1.424          estimate D2E/DX2                !
 ! R20   R(14,15)                0.9724         estimate D2E/DX2                !
 ! R21   R(17,18)                0.9727         estimate D2E/DX2                !
 ! R22   R(20,21)                0.9719         estimate D2E/DX2                !
 ! R23   R(23,24)                0.9724         estimate D2E/DX2                !
 ! A1    A(2,1,4)              108.574          estimate D2E/DX2                !
 ! A2    A(2,1,5)              108.511          estimate D2E/DX2                !
 ! A3    A(2,1,6)              110.407          estimate D2E/DX2                !
 ! A4    A(4,1,5)              110.3838         estimate D2E/DX2                !
 ! A5    A(4,1,6)              109.4597         estimate D2E/DX2                !
 ! A6    A(5,1,6)              109.4917         estimate D2E/DX2                !
 ! A7    A(1,2,3)              107.498          estimate D2E/DX2                !
 ! A8    A(1,6,7)              121.351          estimate D2E/DX2                !
 ! A9    A(1,6,8)              117.057          estimate D2E/DX2                !
 ! A10   A(7,6,8)              121.5748         estimate D2E/DX2                !
 ! A11   A(6,8,9)              115.486          estimate D2E/DX2                !
 ! A12   A(6,8,16)             107.118          estimate D2E/DX2                !
 ! A13   A(6,8,17)             108.1312         estimate D2E/DX2                !
 ! A14   A(9,8,16)             110.516          estimate D2E/DX2                !
 ! A15   A(9,8,17)             108.265          estimate D2E/DX2                !
 ! A16   A(16,8,17)            106.9882         estimate D2E/DX2                !
 ! A17   A(8,9,10)             115.484          estimate D2E/DX2                !
 ! A18   A(8,9,19)             106.5213         estimate D2E/DX2                !
 ! A19   A(8,9,20)             110.4787         estimate D2E/DX2                !
 ! A20   A(10,9,19)            107.567          estimate D2E/DX2                !
 ! A21   A(10,9,20)            109.894          estimate D2E/DX2                !
 ! A22   A(19,9,20)            106.4113         estimate D2E/DX2                !
 ! A23   A(9,10,11)            111.847          estimate D2E/DX2                !
 ! A24   A(9,10,22)            110.727          estimate D2E/DX2                !
 ! A25   A(9,10,23)            109.938          estimate D2E/DX2                !
 ! A26   A(11,10,22)           101.6812         estimate D2E/DX2                !
 ! A27   A(11,10,23)           108.3891         estimate D2E/DX2                !
 ! A28   A(22,10,23)           114.0276         estimate D2E/DX2                !
 ! A29   A(10,11,12)           111.125          estimate D2E/DX2                !
 ! A30   A(10,11,13)           111.8759         estimate D2E/DX2                !
 ! A31   A(10,11,14)           108.815          estimate D2E/DX2                !
 ! A32   A(12,11,13)           109.4922         estimate D2E/DX2                !
 ! A33   A(12,11,14)           107.7211         estimate D2E/DX2                !
 ! A34   A(13,11,14)           107.6593         estimate D2E/DX2                !
 ! A35   A(11,14,15)           107.0319         estimate D2E/DX2                !
 ! A36   A(8,17,18)            107.768          estimate D2E/DX2                !
 ! A37   A(9,20,21)            107.96           estimate D2E/DX2                !
 ! A38   A(10,23,24)           107.9061         estimate D2E/DX2                !
 ! D1    D(4,1,2,3)             60.0            estimate D2E/DX2                !
 ! D2    D(5,1,2,3)            -60.0            estimate D2E/DX2                !
 ! D3    D(6,1,2,3)            180.0            estimate D2E/DX2                !
 ! D4    D(2,1,6,7)             -1.694          estimate D2E/DX2                !
 ! D5    D(2,1,6,8)            179.793          estimate D2E/DX2                !
 ! D6    D(4,1,6,7)            117.7715         estimate D2E/DX2                !
 ! D7    D(4,1,6,8)            -60.7415         estimate D2E/DX2                !
 ! D8    D(5,1,6,7)           -121.102          estimate D2E/DX2                !
 ! D9    D(5,1,6,8)             60.385          estimate D2E/DX2                !
 ! D10   D(1,6,8,9)             -1.4906         estimate D2E/DX2                !
 ! D11   D(1,6,8,16)           122.0863         estimate D2E/DX2                !
 ! D12   D(1,6,8,17)          -122.9186         estimate D2E/DX2                !
 ! D13   D(7,6,8,9)            180.0            estimate D2E/DX2                !
 ! D14   D(7,6,8,16)           -56.4232         estimate D2E/DX2                !
 ! D15   D(7,6,8,17)            58.5719         estimate D2E/DX2                !
 ! D16   D(6,8,9,10)           178.812          estimate D2E/DX2                !
 ! D17   D(6,8,9,19)            59.4631         estimate D2E/DX2                !
 ! D18   D(6,8,9,20)           -55.71           estimate D2E/DX2                !
 ! D19   D(16,8,9,10)           57.041          estimate D2E/DX2                !
 ! D20   D(16,8,9,19)          -62.3079         estimate D2E/DX2                !
 ! D21   D(16,8,9,20)         -177.481          estimate D2E/DX2                !
 ! D22   D(17,8,9,10)          -59.832          estimate D2E/DX2                !
 ! D23   D(17,8,9,19)         -179.1809         estimate D2E/DX2                !
 ! D24   D(17,8,9,20)           65.646          estimate D2E/DX2                !
 ! D25   D(6,8,17,18)         -115.0804         estimate D2E/DX2                !
 ! D26   D(9,8,17,18)          119.126          estimate D2E/DX2                !
 ! D27   D(16,8,17,18)           0.0            estimate D2E/DX2                !
 ! D28   D(8,9,10,11)         -179.087          estimate D2E/DX2                !
 ! D29   D(8,9,10,22)          -66.447          estimate D2E/DX2                !
 ! D30   D(8,9,10,23)           60.45           estimate D2E/DX2                !
 ! D31   D(19,9,10,11)         -60.315          estimate D2E/DX2                !
 ! D32   D(19,9,10,22)          52.325          estimate D2E/DX2                !
 ! D33   D(19,9,10,23)         179.222          estimate D2E/DX2                !
 ! D34   D(20,9,10,11)          55.135          estimate D2E/DX2                !
 ! D35   D(20,9,10,22)         167.775          estimate D2E/DX2                !
 ! D36   D(20,9,10,23)         -65.3281         estimate D2E/DX2                !
 ! D37   D(8,9,20,21)          115.2421         estimate D2E/DX2                !
 ! D38   D(10,9,20,21)        -116.1799         estimate D2E/DX2                !
 ! D39   D(19,9,20,21)           0.0            estimate D2E/DX2                !
 ! D40   D(9,10,11,12)          62.961          estimate D2E/DX2                !
 ! D41   D(9,10,11,13)         -59.764          estimate D2E/DX2                !
 ! D42   D(9,10,11,14)        -178.59           estimate D2E/DX2                !
 ! D43   D(22,10,11,12)        -55.2198         estimate D2E/DX2                !
 ! D44   D(22,10,11,13)       -177.9447         estimate D2E/DX2                !
 ! D45   D(22,10,11,14)         63.2292         estimate D2E/DX2                !
 ! D46   D(23,10,11,12)       -175.677          estimate D2E/DX2                !
 ! D47   D(23,10,11,13)         61.598          estimate D2E/DX2                !
 ! D48   D(23,10,11,14)        -57.228          estimate D2E/DX2                !
 ! D49   D(9,10,23,24)        -125.0235         estimate D2E/DX2                !
 ! D50   D(11,10,23,24)        112.4458         estimate D2E/DX2                !
 ! D51   D(22,10,23,24)          0.0            estimate D2E/DX2                !
 ! D52   D(10,11,14,15)       -179.647          estimate D2E/DX2                !
 ! D53   D(12,11,14,15)        -59.077          estimate D2E/DX2                !
 ! D54   D(13,11,14,15)         58.9155         estimate D2E/DX2                !
 --------------------------------------------------------------------------------
 Trust Radius=3.00D-01 FncErr=1.00D-07 GrdErr=1.00D-06
 Number of steps in this run=    125 maximum allowed number of steps=    144.
 GradGradGradGradGradGradGradGradGradGradGradGradGradGradGradGradGradGrad

                          Input orientation:                          
 ---------------------------------------------------------------------
 Center     Atomic      Atomic             Coordinates (Angstroms)
 Number     Number       Type             X           Y           Z
 ---------------------------------------------------------------------
      1          6           0        0.000000    0.000000    0.000000
      2          8           0        0.000000    0.000000    1.413516
      3          1           0        0.927487    0.000000    1.705916
      4          1           0        0.518025   -0.897246   -0.348146
      5          1           0        0.517855    0.896952   -0.346765
      6          6           0       -1.421472    0.000000   -0.528838
      7          8           0       -2.388894   -0.031101    0.233292
      8          6           0       -1.598381    0.004915   -2.046186
      9          6           0       -0.298033    0.045392   -2.863171
     10          6           0       -0.475503    0.021535   -4.392866
     11          6           0        0.868280    0.042020   -5.121945
     12          1           0        1.456696   -0.851959   -4.890189
     13          1           0        1.450260    0.935079   -4.878545
     14          8           0        0.629072    0.051603   -6.525700
     15          1           0        1.497715    0.058819   -6.962591
     16          1           0       -2.186879   -0.881805   -2.305009
     17          8           0       -2.380652    1.139726   -2.396895
     18          1           0       -3.220032    0.818209   -2.768774
     19          1           0        0.275090   -0.847631   -2.582168
     20          8           0        0.493788    1.167463   -2.484467
     21          1           0        1.314964    0.833878   -2.085668
     22          1           0       -0.890860   -0.938129   -4.720149
     23          8           0       -1.232935    1.156129   -4.812737
     24          1           0       -1.994538    0.834382   -5.324640
 ---------------------------------------------------------------------
                    Distance matrix (angstroms):
                    1          2          3          4          5
     1  C    0.000000
     2  O    1.413516   0.000000
     3  H    1.941747   0.972486   0.000000
     4  H    1.092980   2.043735   2.278570   0.000000
     5  H    1.092219   2.042373   2.277240   1.794199   0.000000
     6  C    1.516658   2.406932   3.242180   2.144609   2.144449
     7  O    2.400460   2.664716   3.628770   3.088439   3.105952
     8  C    2.596483   3.811087   4.523086   2.859442   2.856959
     9  C    2.878998   4.287299   4.730805   2.807110   2.779051
    10  C    4.418579   5.825859   6.258114   4.265093   4.257235
    11  C    5.195190   6.593021   6.828247   4.877915   4.863749
    12  H    5.173176   6.525680   6.671919   4.638244   4.958106
    13  H    5.174730   6.524390   6.671041   4.975037   4.626863
    14  O    6.556154   7.964267   8.237185   6.250985   6.237485
    15  H    7.122098   8.509158   8.687441   6.754608   6.740308
    16  H    3.297436   4.403118   5.154064   3.338571   3.783422
    17  O    3.565331   4.635268   5.392200   4.092549   3.558555
    18  H    4.324833   5.341313   6.155829   4.772347   4.454675
    19  H    2.731619   4.093854   4.419476   2.247740   2.845968
    20  O    2.789153   4.098911   4.371541   2.971107   2.154884
    21  H    2.602786   3.829983   3.901487   2.578931   1.913934
    22  H    4.894234   6.268617   6.743944   4.593587   4.947574
    23  O    5.100902   6.451588   6.963971   5.216779   4.803888
    24  H    5.746840   7.076519   7.659187   5.837551   5.576314
                    6          7          8          9         10
     6  C    0.000000
     7  O    1.231956   0.000000
     8  C    1.527634   2.412929   0.000000
     9  C    2.591001   3.737062   1.536232   0.000000
    10  C    3.978195   5.006513   2.601545   1.540140   0.000000
    11  C    5.132384   6.268420   3.942853   2.542117   1.528963
    12  H    5.294437   6.458516   4.260995   2.827210   2.178007
    13  H    5.295391   6.465561   4.263997   2.812437   2.186095
    14  O    6.337961   7.402630   5.002976   3.778053   2.402076
    15  H    7.065288   8.178909   5.810314   4.475504   3.240134
    16  H    2.125608   2.684675   1.095259   2.176919   2.846749
    17  O    2.389276   2.879025   1.422231   2.398392   2.977221
    18  H    2.986904   3.228702   1.952776   3.023944   3.287066
    19  H    2.795168   3.961104   2.126971   1.097690   2.144170
    20  O    2.975849   4.139158   2.433265   1.424584   2.427893
    21  H    3.256863   4.454697   3.029244   1.956523   3.031309
    22  H    4.327669   5.253892   2.922327   2.183375   1.095715
    23  O    4.441168   5.311136   3.018716   2.430758   1.427340
    24  H    4.901460   5.638722   3.404881   3.091838   1.958671
                   11         12         13         14         15
    11  C    0.000000
    12  H    1.095054   0.000000
    13  H    1.093389   1.787088   0.000000
    14  O    1.424023   2.043595   2.041568   0.000000
    15  H    1.945366   2.264078   2.261268   0.972351   0.000000
    16  H    4.257062   4.467626   4.811750   5.158979   6.012826
    17  O    4.380230   4.990848   4.569065   5.223933   6.087337
    18  H    4.780604   5.400153   5.126053   5.433027   6.357823
    19  H    2.755689   2.592908   3.135670   4.060218   4.637302
    20  O    2.891912   3.285233   2.588523   4.194641   4.721287
    21  H    3.169471   3.275282   2.797983   4.560295   4.941507
    22  H    2.053462   2.355283   3.002472   2.559253   3.424579
    23  O    2.398323   3.357459   2.693089   2.760668   3.644504
    24  H    2.977356   3.865684   3.475021   2.989752   3.934490
                   16         17         18         19         20
    16  H    0.000000
    17  O    2.032874   0.000000
    18  H    2.042677   0.972741   0.000000
    19  H    2.477756   3.322180   3.876303   0.000000
    20  O    3.379006   2.875907   3.741025   2.029280   0.000000
    21  H    3.905712   3.721288   4.586182   2.038461   0.971931
    22  H    2.741485   3.454630   3.509648   2.436923   3.368834
    23  O    3.369256   2.674662   2.870632   3.356282   2.898714
    24  H    3.478572   2.968840   2.834528   3.937198   3.790685
                   21         22         23         24
    21  H    0.000000
    22  H    3.866026   0.000000
    23  O    3.746003   2.124030   0.000000
    24  H    4.630739   2.173778   0.972422   0.000000
 Stoichiometry    C6H12O6
 Framework group  C1[X(C6H12O6)]
 Deg. of freedom    66
 Full point group                 C1      NOp   1
 Largest Abelian subgroup         C1      NOp   1
 Largest concise Abelian subgroup C1      NOp   1
                         Standard orientation:                         
 ---------------------------------------------------------------------
 Center     Atomic      Atomic             Coordinates (Angstroms)
 Number     Number       Type             X           Y           Z
 ---------------------------------------------------------------------
      1          6           0       -2.377973   -1.062293   -0.033628
      2          8           0       -3.766577   -1.308534    0.062145
      3          1           0       -3.884433   -2.260741    0.220703
      4          1           0       -1.977046   -1.647988   -0.864787
      5          1           0       -1.907061   -1.362189    0.905120
      6          6           0       -2.118065    0.411124   -0.282104
      7          8           0       -3.044685    1.213479   -0.405866
      8          6           0       -0.659573    0.848144   -0.406527
      9          6           0        0.382112   -0.266676   -0.227430
     10          6           0        1.851486    0.168455   -0.381155
     11          6           0        2.813951   -1.007071   -0.209324
     12          1           0        2.658183   -1.761668   -0.987439
     13          1           0        2.716656   -1.472709    0.775163
     14          8           0        4.149660   -0.528558   -0.330767
     15          1           0        4.737782   -1.295390   -0.223306
     16          1           0       -0.548065    1.323812   -1.386781
     17          8           0       -0.412773    1.850210    0.572091
     18          1           0       -0.213537    2.679419    0.104176
     19          1           0        0.175209   -1.014839   -1.003553
     20          8           0        0.199331   -0.923305    1.023518
     21          1           0       -0.055734   -1.843892    0.844326
     22          1           0        2.058967    0.476180   -1.412100
     23          8           0        2.170757    1.158398    0.596279
     24          1           0        2.521745    1.936384    0.130284
 ---------------------------------------------------------------------
 Rotational constants (GHZ):      1.9164198      0.4545131      0.3942390
 Standard basis: 6-31G(d) (6D, 7F)
 There are   204 symmetry adapted basis functions of A   symmetry.
 Integral buffers will be    131072 words long.
 Raffenetti 2 integral format.
 Two-electron integral symmetry is turned on.
   204 basis functions,   384 primitive gaussians,   204 cartesian basis functions
    48 alpha electrons       48 beta electrons
       nuclear repulsion energy       784.6460965623 Hartrees.
 NAtoms=   24 NActive=   24 NUniq=   24 SFac= 1.00D+00 NAtFMM=   50 NAOKFM=F Big=F
 One-electron integrals computed using PRISM.
 NBasis=   204 RedAO= T  NBF=   204
 NBsUse=   204 1.00D-06 NBFU=   204
 Harris functional with IExCor=  402 diagonalized for initial guess.
 ExpMin= 1.61D-01 ExpMax= 5.48D+03 ExpMxC= 8.25D+02 IAcc=1 IRadAn=         1 AccDes= 0.00D+00
 HarFok:  IExCor=  402 AccDes= 0.00D+00 IRadAn=         1 IDoV= 1
 ScaDFX=  1.000000  1.000000  1.000000  1.000000
 FoFCou: FMM=F IPFlag=           0 FMFlag=      100000 FMFlg1=           0
         NFxFlg=           0 DoJE=T BraDBF=F KetDBF=T FulRan=T
         Omega=  0.000000  0.000000  1.000000  0.000000  0.000000 ICntrl=     500 IOpCl=  0
         NMat0=    1 NMatS0=    1 NMatT0=    0 NMatD0=    1 NMtDS0=    0 NMtDT0=    0
         I1Cent=           4 NGrid=           0.
 Petite list used in FoFCou.
 Initial guess orbital symmetries:
       Occupied  (A) (A) (A) (A) (A) (A) (A) (A) (A) (A) (A) (A)
                 (A) (A) (A) (A) (A) (A) (A) (A) (A) (A) (A) (A)
                 (A) (A) (A) (A) (A) (A) (A) (A) (A) (A) (A) (A)
                 (A) (A) (A) (A) (A) (A) (A) (A) (A) (A) (A) (A)
       Virtual   (A) (A) (A) (A) (A) (A) (A) (A) (A) (A) (A) (A)
                 (A) (A) (A) (A) (A) (A) (A) (A) (A) (A) (A) (A)
                 (A) (A) (A) (A) (A) (A) (A) (A) (A) (A) (A) (A)
                 (A) (A) (A) (A) (A) (A) (A) (A) (A) (A) (A) (A)
                 (A) (A) (A) (A) (A) (A) (A) (A) (A) (A) (A) (A)
                 (A) (A) (A) (A) (A) (A) (A) (A) (A) (A) (A) (A)
                 (A) (A) (A) (A) (A) (A) (A) (A) (A) (A) (A) (A)
                 (A) (A) (A) (A) (A) (A) (A) (A) (A) (A) (A) (A)
                 (A) (A) (A) (A) (A) (A) (A) (A) (A) (A) (A) (A)
                 (A) (A) (A) (A) (A) (A) (A) (A) (A) (A) (A) (A)
                 (A) (A) (A) (A) (A) (A) (A) (A) (A) (A) (A) (A)
                 (A) (A) (A) (A) (A) (A) (A) (A) (A) (A) (A) (A)
                 (A) (A) (A) (A) (A) (A) (A) (A) (A) (A) (A) (A)
 The electronic state of the initial guess is 1-A.
 Requested convergence on RMS density matrix=1.00D-08 within 128 cycles.
 Requested convergence on MAX density matrix=1.00D-06.
 Requested convergence on             energy=1.00D-06.
 No special actions if energy rises.
 Keep R1 ints in memory in canonical form, NReq=223281102.
 Integral accuracy reduced to 1.0D-05 until final iterations.
 Initial convergence to 1.0D-05 achieved.  Increase integral accuracy.
 SCF Done:  E(RB3LYP) =  -687.077614828     A.U. after   14 cycles
             Convg  =    0.7710D-08             -V/T =  2.0084

 **********************************************************************

            Population analysis using the SCF density.

 **********************************************************************

 Orbital symmetries:
       Occupied  (A) (A) (A) (A) (A) (A) (A) (A) (A) (A) (A) (A)
                 (A) (A) (A) (A) (A) (A) (A) (A) (A) (A) (A) (A)
                 (A) (A) (A) (A) (A) (A) (A) (A) (A) (A) (A) (A)
                 (A) (A) (A) (A) (A) (A) (A) (A) (A) (A) (A) (A)
       Virtual   (A) (A) (A) (A) (A) (A) (A) (A) (A) (A) (A) (A)
                 (A) (A) (A) (A) (A) (A) (A) (A) (A) (A) (A) (A)
                 (A) (A) (A) (A) (A) (A) (A) (A) (A) (A) (A) (A)
                 (A) (A) (A) (A) (A) (A) (A) (A) (A) (A) (A) (A)
                 (A) (A) (A) (A) (A) (A) (A) (A) (A) (A) (A) (A)
                 (A) (A) (A) (A) (A) (A) (A) (A) (A) (A) (A) (A)
                 (A) (A) (A) (A) (A) (A) (A) (A) (A) (A) (A) (A)
                 (A) (A) (A) (A) (A) (A) (A) (A) (A) (A) (A) (A)
                 (A) (A) (A) (A) (A) (A) (A) (A) (A) (A) (A) (A)
                 (A) (A) (A) (A) (A) (A) (A) (A) (A) (A) (A) (A)
                 (A) (A) (A) (A) (A) (A) (A) (A) (A) (A) (A) (A)
                 (A) (A) (A) (A) (A) (A) (A) (A) (A) (A) (A) (A)
                 (A) (A) (A) (A) (A) (A) (A) (A) (A) (A) (A) (A)
 The electronic state is 1-A.
 Alpha  occ. eigenvalues --  -19.16117 -19.14617 -19.14513 -19.14246 -19.14215
 Alpha  occ. eigenvalues --  -19.14132 -10.27730 -10.25481 -10.25201 -10.24696
 Alpha  occ. eigenvalues --  -10.24369 -10.23085  -1.05053  -1.03803  -1.02302
 Alpha  occ. eigenvalues --   -1.02089  -1.00873  -1.00315  -0.78827  -0.75405
 Alpha  occ. eigenvalues --   -0.70930  -0.64984  -0.58899  -0.56704  -0.54136
 Alpha  occ. eigenvalues --   -0.52709  -0.52559  -0.51474  -0.49415  -0.47883
 Alpha  occ. eigenvalues --   -0.47239  -0.44533  -0.43533  -0.42464  -0.41185
 Alpha  occ. eigenvalues --   -0.40099  -0.36373  -0.35855  -0.34824  -0.34385
 Alpha  occ. eigenvalues --   -0.33261  -0.32760  -0.30116  -0.28969  -0.27072
 Alpha  occ. eigenvalues --   -0.26779  -0.25734  -0.23360
 Alpha virt. eigenvalues --   -0.03104   0.02721   0.05830   0.06576   0.07147
 Alpha virt. eigenvalues --    0.09268   0.10916   0.12372   0.14012   0.15521
 Alpha virt. eigenvalues --    0.16270   0.17307   0.17524   0.17999   0.20073
 Alpha virt. eigenvalues --    0.21098   0.22353   0.23233   0.25342   0.27493
 Alpha virt. eigenvalues --    0.29266   0.31282   0.34544   0.37890   0.52513
 Alpha virt. eigenvalues --    0.53620   0.54502   0.55003   0.55828   0.58306
 Alpha virt. eigenvalues --    0.59328   0.60813   0.64210   0.65133   0.66764
 Alpha virt. eigenvalues --    0.67482   0.68435   0.70528   0.71260   0.73864
 Alpha virt. eigenvalues --    0.76567   0.79212   0.80064   0.81283   0.81666
 Alpha virt. eigenvalues --    0.82926   0.83365   0.84343   0.85810   0.86773
 Alpha virt. eigenvalues --    0.88237   0.90166   0.91052   0.92645   0.93099
 Alpha virt. eigenvalues --    0.93569   0.95973   0.97170   0.97645   0.99495
 Alpha virt. eigenvalues --    0.99699   1.01084   1.03014   1.05187   1.05864
 Alpha virt. eigenvalues --    1.09076   1.12129   1.13333   1.15932   1.17097
 Alpha virt. eigenvalues --    1.18461   1.20928   1.23491   1.27829   1.32308
 Alpha virt. eigenvalues --    1.32605   1.34511   1.37306   1.40132   1.42755
 Alpha virt. eigenvalues --    1.46626   1.52275   1.53479   1.57745   1.61745
 Alpha virt. eigenvalues --    1.62777   1.63488   1.66115   1.68561   1.71208
 Alpha virt. eigenvalues --    1.72725   1.73674   1.73962   1.75013   1.77183
 Alpha virt. eigenvalues --    1.79119   1.79994   1.81658   1.82431   1.85924
 Alpha virt. eigenvalues --    1.88821   1.90838   1.92088   1.95522   1.96351
 Alpha virt. eigenvalues --    1.99565   2.00679   2.02168   2.07779   2.10506
 Alpha virt. eigenvalues --    2.11602   2.12994   2.14004   2.16918   2.19140
 Alpha virt. eigenvalues --    2.20240   2.23940   2.25754   2.29480   2.32491
 Alpha virt. eigenvalues --    2.35053   2.36321   2.38609   2.44133   2.44989
 Alpha virt. eigenvalues --    2.48941   2.49917   2.51729   2.55499   2.58967
 Alpha virt. eigenvalues --    2.61607   2.63178   2.63887   2.66706   2.69325
 Alpha virt. eigenvalues --    2.72124   2.80299   2.86506   2.89722   2.93689
 Alpha virt. eigenvalues --    2.95236   2.96934   3.01230   3.04793   3.69139
 Alpha virt. eigenvalues --    3.75474   3.79668   3.81815   3.91141   4.06187
 Alpha virt. eigenvalues --    4.17182   4.27955   4.39796   4.43072   4.56396
 Alpha virt. eigenvalues --    4.72687
          Condensed to atoms (all electrons):
              1          2          3          4          5          6
     1  C    5.210549   0.216559  -0.022134   0.339261   0.340945   0.251290
     2  O    0.216559   8.254068   0.231912  -0.038060  -0.031412  -0.032238
     3  H   -0.022134   0.231912   0.400421  -0.004603  -0.003668   0.006464
     4  H    0.339261  -0.038060  -0.004603   0.641464  -0.046800  -0.033437
     5  H    0.340945  -0.031412  -0.003668  -0.046800   0.577231  -0.030245
     6  C    0.251290  -0.032238   0.006464  -0.033437  -0.030245   4.666405
     7  O   -0.082203   0.002736   0.000236   0.000302   0.000045   0.560953
     8  C   -0.125697   0.001830  -0.000222   0.005040   0.006695   0.262550
     9  C    0.006275   0.000100   0.000014  -0.002637  -0.006596  -0.039006
    10  C    0.000099   0.000000   0.000000   0.000215   0.000324   0.001439
    11  C    0.000009   0.000000   0.000000  -0.000007  -0.000024  -0.000054
    12  H   -0.000002   0.000000   0.000000  -0.000009  -0.000001   0.000009
    13  H    0.000001   0.000000   0.000000   0.000001  -0.000011   0.000003
    14  O    0.000000   0.000000   0.000000   0.000000   0.000000   0.000000
    15  H    0.000000   0.000000   0.000000   0.000000   0.000000   0.000000
    16  H    0.007444  -0.000035   0.000005  -0.000701   0.000282  -0.031145
    17  O    0.002875  -0.000008   0.000001   0.000058  -0.000045  -0.044623
    18  H   -0.000238   0.000001   0.000000   0.000002  -0.000016   0.001287
    19  H   -0.003488  -0.000018  -0.000007   0.006172   0.000593   0.001574
    20  O   -0.014833   0.000273   0.000015  -0.000790   0.023307  -0.003160
    21  H    0.006695  -0.000189  -0.000063   0.000593  -0.000832  -0.001552
    22  H   -0.000001   0.000000   0.000000  -0.000005  -0.000012   0.000000
    23  O    0.000000   0.000000   0.000000  -0.000001  -0.000003   0.000078
    24  H   -0.000001   0.000000   0.000000   0.000000   0.000001   0.000021
              7          8          9         10         11         12
     1  C   -0.082203  -0.125697   0.006275   0.000099   0.000009  -0.000002
     2  O    0.002736   0.001830   0.000100   0.000000   0.000000   0.000000
     3  H    0.000236  -0.000222   0.000014   0.000000   0.000000   0.000000
     4  H    0.000302   0.005040  -0.002637   0.000215  -0.000007  -0.000009
     5  H    0.000045   0.006695  -0.006596   0.000324  -0.000024  -0.000001
     6  C    0.560953   0.262550  -0.039006   0.001439  -0.000054   0.000009
     7  O    8.004060  -0.057804   0.003061  -0.000046   0.000000   0.000000
     8  C   -0.057804   5.166841   0.263911  -0.023645   0.003267  -0.000067
     9  C    0.003061   0.263911   5.101715   0.288252  -0.051578   0.005402
    10  C   -0.000046  -0.023645   0.288252   4.927438   0.341195  -0.037746
    11  C    0.000000   0.003267  -0.051578   0.341195   4.935707   0.336414
    12  H    0.000000  -0.000067   0.005402  -0.037746   0.336414   0.692460
    13  H    0.000000   0.000088  -0.007356  -0.030319   0.357875  -0.052518
    14  O    0.000000  -0.000022   0.002071  -0.044830   0.241541  -0.042129
    15  H    0.000000   0.000002  -0.000234   0.006281  -0.022833  -0.004730
    16  H   -0.002352   0.339593  -0.044785  -0.001594  -0.000155  -0.000006
    17  O   -0.001131   0.235930  -0.067723  -0.002735   0.000009   0.000003
    18  H    0.000843  -0.013114   0.005456   0.001213   0.000054  -0.000002
    19  H    0.000018  -0.050689   0.334875  -0.039628  -0.000341   0.003683
    20  O   -0.000047  -0.049101   0.206754  -0.053971  -0.004092   0.000041
    21  H    0.000008   0.008140  -0.017653   0.002564   0.000765  -0.000022
    22  H    0.000000  -0.002095  -0.040266   0.341180  -0.057096  -0.006225
    23  O    0.000000  -0.001551  -0.058217   0.243586  -0.056366   0.004334
    24  H    0.000000   0.000752   0.004981  -0.017022   0.003313  -0.000229
             13         14         15         16         17         18
     1  C    0.000001   0.000000   0.000000   0.007444   0.002875  -0.000238
     2  O    0.000000   0.000000   0.000000  -0.000035  -0.000008   0.000001
     3  H    0.000000   0.000000   0.000000   0.000005   0.000001   0.000000
     4  H    0.000001   0.000000   0.000000  -0.000701   0.000058   0.000002
     5  H   -0.000011   0.000000   0.000000   0.000282  -0.000045  -0.000016
     6  C    0.000003   0.000000   0.000000  -0.031145  -0.044623   0.001287
     7  O    0.000000   0.000000   0.000000  -0.002352  -0.001131   0.000843
     8  C    0.000088  -0.000022   0.000002   0.339593   0.235930  -0.013114
     9  C   -0.007356   0.002071  -0.000234  -0.044785  -0.067723   0.005456
    10  C   -0.030319  -0.044830   0.006281  -0.001594  -0.002735   0.001213
    11  C    0.357875   0.241541  -0.022833  -0.000155   0.000009   0.000054
    12  H   -0.052518  -0.042129  -0.004730  -0.000006   0.000003  -0.000002
    13  H    0.611938  -0.039438  -0.003584  -0.000004  -0.000005   0.000001
    14  O   -0.039438   8.268413   0.235220   0.000000   0.000000   0.000000
    15  H   -0.003584   0.235220   0.397005   0.000000   0.000000   0.000000
    16  H   -0.000004   0.000000   0.000000   0.627740  -0.024741  -0.016581
    17  O   -0.000005   0.000000   0.000000  -0.024741   8.247491   0.229724
    18  H    0.000001   0.000000   0.000000  -0.016581   0.229724   0.393100
    19  H    0.000108  -0.000021  -0.000004   0.001015   0.004079  -0.000260
    20  O    0.012331   0.000070   0.000009   0.003284   0.001885  -0.000099
    21  H    0.000020  -0.000002  -0.000002  -0.000319  -0.000112   0.000000
    22  H    0.008458   0.004743  -0.000237   0.001815  -0.000070  -0.000043
    23  O   -0.002079   0.003176   0.000061  -0.000055  -0.005790   0.003625
    24  H   -0.000277   0.000966  -0.000006  -0.000034   0.002371   0.000343
             19         20         21         22         23         24
     1  C   -0.003488  -0.014833   0.006695  -0.000001   0.000000  -0.000001
     2  O   -0.000018   0.000273  -0.000189   0.000000   0.000000   0.000000
     3  H   -0.000007   0.000015  -0.000063   0.000000   0.000000   0.000000
     4  H    0.006172  -0.000790   0.000593  -0.000005  -0.000001   0.000000
     5  H    0.000593   0.023307  -0.000832  -0.000012  -0.000003   0.000001
     6  C    0.001574  -0.003160  -0.001552   0.000000   0.000078   0.000021
     7  O    0.000018  -0.000047   0.000008   0.000000   0.000000   0.000000
     8  C   -0.050689  -0.049101   0.008140  -0.002095  -0.001551   0.000752
     9  C    0.334875   0.206754  -0.017653  -0.040266  -0.058217   0.004981
    10  C   -0.039628  -0.053971   0.002564   0.341180   0.243586  -0.017022
    11  C   -0.000341  -0.004092   0.000765  -0.057096  -0.056366   0.003313
    12  H    0.003683   0.000041  -0.000022  -0.006225   0.004334  -0.000229
    13  H    0.000108   0.012331   0.000020   0.008458  -0.002079  -0.000277
    14  O   -0.000021   0.000070  -0.000002   0.004743   0.003176   0.000966
    15  H   -0.000004   0.000009  -0.000002  -0.000237   0.000061  -0.000006
    16  H    0.001015   0.003284  -0.000319   0.001815  -0.000055  -0.000034
    17  O    0.004079   0.001885  -0.000112  -0.000070  -0.005790   0.002371
    18  H   -0.000260  -0.000099   0.000000  -0.000043   0.003625   0.000343
    19  H    0.685813  -0.035766  -0.018273  -0.000349   0.003485  -0.000208
    20  O   -0.035766   8.291792   0.222173   0.003442   0.001278  -0.000107
    21  H   -0.018273   0.222173   0.403841  -0.000121  -0.000077  -0.000004
    22  H   -0.000349   0.003442  -0.000121   0.664827  -0.028883  -0.013238
    23  O    0.003485   0.001278  -0.000077  -0.028883   8.249825   0.230463
    24  H   -0.000208  -0.000107  -0.000004  -0.013238   0.230463   0.394862
 Mulliken atomic charges:
              1
     1  C   -0.133404
     2  O   -0.605518
     3  H    0.391628
     4  H    0.133944
     5  H    0.170244
     6  C    0.463386
     7  O   -0.428680
     8  C    0.029370
     9  C    0.113186
    10  C    0.097750
    11  C   -0.027603
    12  H    0.101338
    13  H    0.144769
    14  O   -0.629756
    15  H    0.393052
    16  H    0.141329
    17  O   -0.577445
    18  H    0.394705
    19  H    0.107636
    20  O   -0.604687
    21  H    0.394420
    22  H    0.124173
    23  O   -0.586888
    24  H    0.393054
 Sum of Mulliken atomic charges =   0.00000
 Mulliken charges with hydrogens summed into heavy atoms:
              1
     1  C    0.170783
     2  O   -0.213890
     6  C    0.463386
     7  O   -0.428680
     8  C    0.170699
     9  C    0.220821
    10  C    0.221923
    11  C    0.218503
    14  O   -0.236705
    17  O   -0.182741
    20  O   -0.210267
    23  O   -0.193834
 Sum of Mulliken charges with hydrogens summed into heavy atoms =   0.00000
 Electronic spatial extent (au):  <R**2>=           2730.6522
 Charge=              0.0000 electrons
 Dipole moment (field-independent basis, Debye):
    X=              3.1636    Y=             -4.1000    Z=             -3.2676  Tot=              6.1234
 Quadrupole moment (field-independent basis, Debye-Ang):
   XX=            -84.3538   YY=            -52.1136   ZZ=            -73.1848
   XY=              6.4546   XZ=             -4.0046   YZ=             -4.6253
 Traceless Quadrupole moment (field-independent basis, Debye-Ang):
   XX=            -14.4698   YY=             17.7705   ZZ=             -3.3007
   XY=              6.4546   XZ=             -4.0046   YZ=             -4.6253
 Octapole moment (field-independent basis, Debye-Ang**2):
  XXX=             82.4754  YYY=              1.0110  ZZZ=              1.2319  XYY=              8.9283
  XXY=            -60.0046  XXZ=              9.6827  XZZ=             -4.5559  YZZ=             -1.1487
  YYZ=              0.7687  XYZ=             -0.4746
 Hexadecapole moment (field-independent basis, Debye-Ang**3):
 XXXX=          -2570.0912 YYYY=           -423.3833 ZZZZ=           -182.2961 XXXY=            -23.2907
 XXXZ=            -21.8353 YYYX=             89.6646 YYYZ=            -18.8133 ZZZX=              1.5703
 ZZZY=             -3.8243 XXYY=           -360.3131 XXZZ=           -453.2637 YYZZ=           -124.8141
 XXYZ=             -8.4361 YYXZ=            -13.3871 ZZXY=              2.4137
 N-N= 7.846460965623D+02 E-N=-3.181380481253D+03  KE= 6.813293131521D+02
 Calling FoFJK, ICntrl=      2127 FMM=F ISym2X=0 I1Cent= 0 IOpClX= 0 NMat=1 NMatS=1 NMatT=0.
 ***** Axes restored to original set *****
 -------------------------------------------------------------------
 Center     Atomic                   Forces (Hartrees/Bohr)
 Number     Number              X              Y              Z
 -------------------------------------------------------------------
      1        6           0.004344098    0.005692945    0.026571101
      2        8          -0.003466332   -0.003089312    0.007064358
      3        1          -0.003891127    0.000535374   -0.001867276
      4        1           0.003177396   -0.003878329   -0.010273001
      5        1          -0.002174215   -0.000945849   -0.005258436
      6        6          -0.018639993   -0.004564149    0.029279963
      7        8           0.024268360    0.001783423   -0.025187938
      8        6          -0.011408839    0.010908346   -0.017880877
      9        6           0.010546199   -0.015751331    0.003273132
     10        6           0.006196824    0.007796886   -0.006214720
     11        6           0.010654633    0.007755863   -0.010605426
     12        1           0.001869660   -0.003201319    0.009811056
     13        1          -0.000709976    0.001492290    0.009016722
     14        8          -0.005497934   -0.003915169   -0.005530128
     15        1          -0.004062955    0.000545860    0.001731650
     16        1           0.006377265   -0.008368691    0.001136476
     17        8          -0.012263580    0.003581345    0.006603612
     18        1           0.005252302    0.004534443    0.003936200
     19        1          -0.001899386   -0.006977744   -0.004288275
     20        8           0.005316241    0.010695540   -0.003346263
     21        1          -0.004004272    0.002943599   -0.006189680
     22        1          -0.013021688   -0.000149629    0.004020912
     23        8          -0.002765499   -0.010461907   -0.006681103
     24        1           0.005802819    0.003037515    0.000877941
 -------------------------------------------------------------------
 Cartesian Forces:  Max     0.029279963 RMS     0.009263001

 GradGradGradGradGradGradGradGradGradGradGradGradGradGradGradGradGradGrad
 Berny optimization.
 Internal  Forces:  Max     0.036748649 RMS     0.008481124
 Search for a local minimum.
 Step number   1 out of a maximum of  125
 All quantities printed in internal units (Hartrees-Bohrs-Radians)
 Mixed Optimization -- RFO/linear search
 Second derivative matrix not updated -- first step.
 ITU=  0
     Eigenvalues ---    0.00235   0.00287   0.00383   0.00400   0.00474
     Eigenvalues ---    0.00546   0.01330   0.01367   0.01374   0.01398
     Eigenvalues ---    0.01513   0.03721   0.04406   0.04529   0.04671
     Eigenvalues ---    0.04838   0.05234   0.05249   0.05567   0.06358
     Eigenvalues ---    0.07013   0.07362   0.07684   0.08492   0.11472
     Eigenvalues ---    0.11550   0.13692   0.13970   0.16000   0.16000
     Eigenvalues ---    0.16000   0.16000   0.16000   0.16590   0.17760
     Eigenvalues ---    0.18243   0.19782   0.19825   0.20268   0.22028
     Eigenvalues ---    0.22170   0.24991   0.25000   0.28507   0.28855
     Eigenvalues ---    0.29519   0.29643   0.30691   0.33939   0.34160
     Eigenvalues ---    0.34212   0.34235   0.34424   0.34470   0.34557
     Eigenvalues ---    0.41374   0.41777   0.41860   0.42126   0.43452
     Eigenvalues ---    0.52821   0.52872   0.52885   0.52899   0.52984
     Eigenvalues ---    0.90276
 RFO step:  Lambda=-3.71107471D-02 EMin= 2.34970769D-03
 Linear search not attempted -- first point.
 Maximum step size (   0.300) exceeded in Quadratic search.
    -- Step size scaled by   0.894
 Iteration  1 RMS(Cart)=  0.21630251 RMS(Int)=  0.01066954
 Iteration  2 RMS(Cart)=  0.02044000 RMS(Int)=  0.00097196
 Iteration  3 RMS(Cart)=  0.00024064 RMS(Int)=  0.00096573
 Iteration  4 RMS(Cart)=  0.00000020 RMS(Int)=  0.00096573
 Variable       Old X    -DE/DX   Delta X   Delta X   Delta X     New X
                                 (Linear)    (Quad)   (Total)
    R1        2.67116   0.00520   0.00000   0.00985   0.00985   2.68101
    R2        2.06543   0.00797   0.00000   0.01866   0.01866   2.08409
    R3        2.06400  -0.00014   0.00000  -0.00033  -0.00033   2.06367
    R4        2.86607   0.00379   0.00000   0.00984   0.00984   2.87591
    R5        1.83773  -0.00427   0.00000  -0.00675  -0.00675   1.83098
    R6        2.32806  -0.03469   0.00000  -0.03301  -0.03301   2.29505
    R7        2.88681   0.02063   0.00000   0.05531   0.05531   2.94212
    R8        2.90306   0.01447   0.00000   0.03975   0.03975   2.94280
    R9        2.06974   0.00308   0.00000   0.00726   0.00726   2.07700
   R10        2.68763   0.00773   0.00000   0.01509   0.01509   2.70272
   R11        2.91044   0.00368   0.00000   0.01023   0.01023   2.92067
   R12        2.07433   0.00359   0.00000   0.00852   0.00852   2.08286
   R13        2.69207   0.00894   0.00000   0.01757   0.01757   2.70965
   R14        2.88932  -0.00010   0.00000  -0.00027  -0.00027   2.88905
   R15        2.07060   0.00387   0.00000   0.00913   0.00913   2.07973
   R16        2.69728  -0.00580   0.00000  -0.01151  -0.01151   2.68577
   R17        2.06935   0.00569   0.00000   0.01342   0.01342   2.08277
   R18        2.06621   0.00285   0.00000   0.00668   0.00668   2.07289
   R19        2.69101   0.00533   0.00000   0.01046   0.01046   2.70148
   R20        1.83748  -0.00441   0.00000  -0.00696  -0.00696   1.83052
   R21        1.83821  -0.00754   0.00000  -0.01193  -0.01193   1.82629
   R22        1.83668  -0.00693   0.00000  -0.01094  -0.01094   1.82575
   R23        1.83761  -0.00601   0.00000  -0.00950  -0.00950   1.82811
    A1        1.89497   0.00690   0.00000   0.03582   0.03541   1.93038
    A2        1.89387   0.00830   0.00000   0.04451   0.04413   1.93800
    A3        1.92697  -0.00906   0.00000  -0.02854  -0.02837   1.89859
    A4        1.92656  -0.00203   0.00000  -0.01425  -0.01536   1.91120
    A5        1.91043  -0.00153   0.00000  -0.01655  -0.01651   1.89392
    A6        1.91099  -0.00251   0.00000  -0.02035  -0.02026   1.89073
    A7        1.87619  -0.00113   0.00000  -0.00511  -0.00511   1.87109
    A8        2.11798  -0.01279   0.00000  -0.04002  -0.04013   2.07785
    A9        2.04303   0.03675   0.00000   0.11430   0.11420   2.15723
   A10        2.12188  -0.02399   0.00000  -0.07493  -0.07502   2.04686
   A11        2.01561   0.02740   0.00000   0.10964   0.10977   2.12538
   A12        1.86956  -0.00996   0.00000  -0.07470  -0.07253   1.79703
   A13        1.88725  -0.01805   0.00000  -0.05039  -0.05547   1.83177
   A14        1.92887  -0.01404   0.00000  -0.07532  -0.07260   1.85627
   A15        1.88958   0.00490   0.00000   0.04617   0.04513   1.93471
   A16        1.86730   0.00860   0.00000   0.04113   0.04042   1.90772
   A17        2.01558   0.00034   0.00000  -0.00783  -0.00780   2.00778
   A18        1.85915  -0.00132   0.00000  -0.00594  -0.00767   1.85148
   A19        1.92822   0.00766   0.00000   0.04060   0.04019   1.96840
   A20        1.87740  -0.00412   0.00000  -0.04806  -0.04809   1.82930
   A21        1.91801  -0.00795   0.00000  -0.03220  -0.03186   1.88615
   A22        1.85723   0.00583   0.00000   0.05782   0.05687   1.91409
   A23        1.95210  -0.00839   0.00000  -0.02601  -0.02594   1.92616
   A24        1.93255  -0.00520   0.00000  -0.03464  -0.03413   1.89842
   A25        1.91878   0.01237   0.00000   0.05265   0.05282   1.97160
   A26        1.77467   0.00943   0.00000   0.05037   0.05015   1.82483
   A27        1.89175  -0.00396   0.00000  -0.01275  -0.01248   1.87926
   A28        1.99016  -0.00529   0.00000  -0.03255  -0.03220   1.95796
   A29        1.93950  -0.00256   0.00000  -0.02655  -0.02662   1.91288
   A30        1.95260  -0.00374   0.00000  -0.02859  -0.02847   1.92413
   A31        1.89918  -0.01177   0.00000  -0.03714  -0.03691   1.86226
   A32        1.91100  -0.00006   0.00000  -0.00428  -0.00629   1.90471
   A33        1.88009   0.00811   0.00000   0.04094   0.04007   1.92016
   A34        1.87901   0.01085   0.00000   0.06099   0.06037   1.93938
   A35        1.86806   0.00052   0.00000   0.00237   0.00237   1.87043
   A36        1.88091   0.00398   0.00000   0.01805   0.01805   1.89895
   A37        1.88426   0.00113   0.00000   0.00511   0.00511   1.88937
   A38        1.88332   0.00179   0.00000   0.00814   0.00814   1.89146
    D1        1.04720   0.00345   0.00000   0.02019   0.02101   1.06821
    D2       -1.04720  -0.00294   0.00000  -0.00932  -0.01018  -1.05737
    D3        3.14159   0.00042   0.00000   0.00504   0.00508  -3.13651
    D4       -0.02957   0.00182   0.00000   0.03381   0.03370   0.00413
    D5        3.13798   0.00325   0.00000   0.06264   0.06276  -3.08245
    D6        2.05550   0.00378   0.00000   0.04999   0.04978   2.10528
    D7       -1.06014   0.00521   0.00000   0.07882   0.07884  -0.98130
    D8       -2.11363  -0.00125   0.00000   0.00931   0.00929  -2.10434
    D9        1.05392   0.00018   0.00000   0.03814   0.03835   1.09227
   D10       -0.02602   0.00559   0.00000   0.04657   0.04648   0.02047
   D11        2.13081  -0.00164   0.00000  -0.03436  -0.03603   2.09477
   D12       -2.14533  -0.00557   0.00000  -0.04911  -0.04698  -2.19232
   D13        3.14159   0.00684   0.00000   0.07491   0.07458  -3.06702
   D14       -0.98477  -0.00039   0.00000  -0.00603  -0.00794  -0.99271
   D15        1.02227  -0.00432   0.00000  -0.02077  -0.01889   1.00338
   D16        3.12086  -0.00508   0.00000  -0.13565  -0.13751   2.98335
   D17        1.03783   0.00086   0.00000  -0.06591  -0.06789   0.96994
   D18       -0.97232  -0.00915   0.00000  -0.15130  -0.15331  -1.12563
   D19        0.99555  -0.00086   0.00000  -0.05725  -0.05738   0.93817
   D20       -1.08748   0.00508   0.00000   0.01249   0.01224  -1.07524
   D21       -3.09763  -0.00493   0.00000  -0.07291  -0.07318   3.11238
   D22       -1.04427  -0.00624   0.00000  -0.09179  -0.08953  -1.13379
   D23       -3.12730  -0.00030   0.00000  -0.02205  -0.01991   3.13598
   D24        1.14574  -0.01031   0.00000  -0.10744  -0.10533   1.04041
   D25       -2.00853   0.01467   0.00000   0.08949   0.08882  -1.91971
   D26        2.07914  -0.01066   0.00000  -0.04294  -0.04101   2.03813
   D27        0.00000  -0.00142   0.00000  -0.00121  -0.00247  -0.00247
   D28       -3.12566   0.00220   0.00000   0.04501   0.04466  -3.08100
   D29       -1.15972   0.00581   0.00000   0.07104   0.07114  -1.08857
   D30        1.05505   0.00432   0.00000   0.04245   0.04236   1.09741
   D31       -1.05269  -0.00222   0.00000  -0.00190  -0.00217  -1.05487
   D32        0.91324   0.00138   0.00000   0.02413   0.02431   0.93755
   D33        3.12801  -0.00010   0.00000  -0.00446  -0.00447   3.12354
   D34        0.96229  -0.00174   0.00000   0.02328   0.02319   0.98548
   D35        2.92823   0.00187   0.00000   0.04931   0.04968   2.97790
   D36       -1.14019   0.00038   0.00000   0.02072   0.02089  -1.11930
   D37        2.01135   0.00400   0.00000   0.05560   0.05669   2.06804
   D38       -2.02772   0.00417   0.00000   0.05155   0.05191  -1.97581
   D39        0.00000  -0.00151   0.00000   0.01033   0.00888   0.00888
   D40        1.09888  -0.00705   0.00000  -0.06561  -0.06574   1.03314
   D41       -1.04308  -0.00243   0.00000  -0.02030  -0.02064  -1.06372
   D42       -3.11698  -0.00598   0.00000  -0.05440  -0.05455   3.11165
   D43       -0.96377  -0.00255   0.00000  -0.04197  -0.04174  -1.00551
   D44       -3.10572   0.00207   0.00000   0.00334   0.00335  -3.10237
   D45        1.10356  -0.00147   0.00000  -0.03076  -0.03056   1.07300
   D46       -3.06614   0.00043   0.00000  -0.02485  -0.02471  -3.09085
   D47        1.07509   0.00505   0.00000   0.02046   0.02039   1.09547
   D48       -0.99882   0.00151   0.00000  -0.01364  -0.01352  -1.01234
   D49       -2.18207  -0.00287   0.00000  -0.01942  -0.01937  -2.20144
   D50        1.96255   0.00229   0.00000  -0.01208  -0.01212   1.95043
   D51        0.00000  -0.00390   0.00000  -0.04804  -0.04805  -0.04805
   D52       -3.13543  -0.00029   0.00000  -0.00284  -0.00292  -3.13835
   D53       -1.03109  -0.00536   0.00000  -0.03207  -0.03350  -1.06459
   D54        1.02827   0.00463   0.00000   0.01701   0.01852   1.04679
         Item               Value     Threshold  Converged?
 Maximum Force            0.036749     0.000450     NO 
 RMS     Force            0.008481     0.000300     NO 
 Maximum Displacement     0.807331     0.001800     NO 
 RMS     Displacement     0.224251     0.001200     NO 
 Predicted change in Energy=-2.271458D-02
 GradGradGradGradGradGradGradGradGradGradGradGradGradGradGradGradGradGrad

                          Input orientation:                          
 ---------------------------------------------------------------------
 Center     Atomic      Atomic             Coordinates (Angstroms)
 Number     Number       Type             X           Y           Z
 ---------------------------------------------------------------------
      1          6           0       -0.023153   -0.036484    0.258524
      2          8           0       -0.286482   -0.221589    1.640259
      3          1           0        0.568143   -0.226469    2.096753
      4          1           0        0.590185   -0.864745   -0.134017
      5          1           0        0.488061    0.911945    0.080456
      6          6           0       -1.345850   -0.015911   -0.493891
      7          8           0       -2.380586   -0.145021    0.128709
      8          6           0       -1.454136    0.092217   -2.043257
      9          6           0       -0.190535    0.161746   -2.950753
     10          6           0       -0.466941    0.045549   -4.466944
     11          6           0        0.847113    0.040059   -5.248308
     12          1           0        1.469140   -0.808357   -4.919646
     13          1           0        1.394629    0.974959   -5.076761
     14          8           0        0.504066   -0.110213   -6.627938
     15          1           0        1.332761   -0.117529   -7.129462
     16          1           0       -1.982462   -0.831428   -2.318534
     17          8           0       -2.310346    1.213947   -2.275960
     18          1           0       -3.153819    0.895136   -2.623667
     19          1           0        0.411210   -0.728400   -2.705014
     20          8           0        0.587131    1.346019   -2.729950
     21          1           0        1.463731    1.079608   -2.423305
     22          1           0       -0.914143   -0.939128   -4.670958
     23          8           0       -1.262874    1.110749   -4.968728
     24          1           0       -2.023789    0.731569   -5.430334
 ---------------------------------------------------------------------
                    Distance matrix (angstroms):
                    1          2          3          4          5
     1  C    0.000000
     2  O    1.418731   0.000000
     3  H    1.940312   0.968914   0.000000
     4  H    1.102855   2.080925   2.320392   0.000000
     5  H    1.092047   2.077932   2.316863   1.792499   0.000000
     6  C    1.521866   2.391476   3.227869   2.144355   2.134015
     7  O    2.363498   2.583780   3.546101   3.067981   3.057555
     8  C    2.713387   3.876877   4.618534   2.956386   2.992363
     9  C    3.219748   4.607987   5.118948   3.097936   3.195547
    10  C    4.746971   6.115706   6.650377   4.551967   4.726682
    11  C    5.575700   6.986119   7.355188   5.200063   5.411546
    12  H    5.443912   6.816074   7.097905   4.866004   5.378009
    13  H    5.612343   7.026821   7.320233   5.335012   5.236671
    14  O    6.907008   8.306651   8.725701   6.538176   6.785839
    15  H    7.511819   8.918564   9.258486   7.074320   7.331866
    16  H    3.333475   4.349746   5.134815   3.375164   3.859791
    17  O    3.635717   4.636115   5.429652   4.161965   3.670829
    18  H    4.356146   5.258304   6.115011   4.828364   4.536062
    19  H    3.074082   4.430015   4.830480   2.580823   3.233494
    20  O    3.348841   4.724333   5.076430   3.409744   2.845455
    21  H    3.263234   4.611823   4.789451   3.128007   2.692371
    22  H    5.090032   6.382811   6.964694   4.780415   5.288533
    23  O    5.493379   6.812281   7.420364   5.541735   5.347855
    24  H    6.079108   7.343026   8.018291   6.118174   6.058938
                    6          7          8          9         10
     6  C    0.000000
     7  O    1.214487   0.000000
     8  C    1.556905   2.373190   0.000000
     9  C    2.720752   3.791243   1.557264   0.000000
    10  C    4.069572   4.981806   2.617440   1.545554   0.000000
    11  C    5.236096   6.274123   3.945988   2.523941   1.528822
    12  H    5.304663   6.383283   4.198832   2.751756   2.163909
    13  H    5.430907   6.527137   4.254038   2.773800   2.168207
    14  O    6.407621   7.346748   4.989472   3.752082   2.374238
    15  H    7.156542   8.152960   5.803471   4.456460   3.217845
    16  H    2.097538   2.572675   1.099102   2.144084   2.771563
    17  O    2.370353   2.762998   1.430218   2.460909   3.092525
    18  H    2.938487   3.042267   1.967353   3.070163   3.367312
    19  H    2.912725   4.020503   2.142627   1.102199   2.115311
    20  O    3.254417   4.382063   2.492055   1.433883   2.412351
    21  H    3.580020   4.774020   3.103760   1.963992   2.995535
    22  H    4.299603   5.081128   2.874035   2.166711   1.100546
    23  O    4.615237   5.367504   3.103606   2.474417   1.421249
    24  H    5.038532   5.639032   3.493647   3.135895   1.955126
                   11         12         13         14         15
    11  C    0.000000
    12  H    1.102155   0.000000
    13  H    1.096924   1.791774   0.000000
    14  O    1.429559   2.082554   2.092092   0.000000
    15  H    1.949212   2.319295   2.326143   0.968667   0.000000
    16  H    4.165280   4.322022   4.719702   5.027318   5.886033
    17  O    4.492485   5.036200   4.650639   5.349208   6.213014
    18  H    4.860798   5.435546   5.168406   5.515889   6.438718
    19  H    2.692375   2.455648   3.081189   3.972418   4.560500
    20  O    2.848728   3.195942   2.509434   4.161949   4.696131
    21  H    3.072706   3.129882   2.656417   4.473876   4.857798
    22  H    2.096226   2.399789   3.026357   2.555032   3.430430
    23  O    2.382560   3.339054   2.663162   2.714001   3.593712
    24  H    2.958614   3.851328   3.445262   2.921113   3.856739
                   16         17         18         19         20
    16  H    0.000000
    17  O    2.071926   0.000000
    18  H    2.108603   0.966430   0.000000
    19  H    2.426859   3.371003   3.918152   0.000000
    20  O    3.393132   2.935801   3.769522   2.082014   0.000000
    21  H    3.941989   3.779341   4.625575   2.110936   0.966144
    22  H    2.585885   3.510147   3.545712   2.380315   3.353093
    23  O    3.363537   2.891167   3.020178   3.362949   2.913760
    24  H    3.482523   3.203885   3.030034   3.935492   3.806117
                   21         22         23         24
    21  H    0.000000
    22  H    3.844674   0.000000
    23  O    3.730217   2.100542   0.000000
    24  H    4.618024   2.144573   0.967393   0.000000
 Stoichiometry    C6H12O6
 Framework group  C1[X(C6H12O6)]
 Deg. of freedom    66
 Full point group                 C1      NOp   1
 Largest Abelian subgroup         C1      NOp   1
 Largest concise Abelian subgroup C1      NOp   1
                         Standard orientation:                         
 ---------------------------------------------------------------------
 Center     Atomic      Atomic             Coordinates (Angstroms)
 Number     Number       Type             X           Y           Z
 ---------------------------------------------------------------------
      1          6           0       -2.664836   -1.071864    0.006125
      2          8           0       -4.078797   -1.075830   -0.110048
      3          1           0       -4.378424   -1.979968    0.067580
      4          1           0       -2.212727   -1.753122   -0.733991
      5          1           0       -2.353161   -1.366013    1.010566
      6          6           0       -2.155323    0.337328   -0.259674
      7          8           0       -2.954964    1.215527   -0.513286
      8          6           0       -0.645359    0.715013   -0.295948
      9          6           0        0.471502   -0.349419   -0.084576
     10          6           0        1.908283    0.145073   -0.367198
     11          6           0        2.906210   -1.002522   -0.210794
     12          1           0        2.649661   -1.813647   -0.911511
     13          1           0        2.879778   -1.391425    0.814534
     14          8           0        4.195355   -0.471908   -0.527328
     15          1           0        4.833116   -1.194897   -0.433180
     16          1           0       -0.513009    1.104295   -1.315246
     17          8           0       -0.510545    1.787253    0.640882
     18          1           0       -0.332033    2.603946    0.155978
     19          1           0        0.290870   -1.134924   -0.836372
     20          8           0        0.449292   -0.924185    1.228882
     21          1           0        0.287858   -1.872723    1.141428
     22          1           0        1.981714    0.432956   -1.426883
     23          8           0        2.315424    1.192526    0.502875
     24          1           0        2.617376    1.936787   -0.036337
 ---------------------------------------------------------------------
 Rotational constants (GHZ):      1.9641837      0.4173408      0.3730395
 Standard basis: 6-31G(d) (6D, 7F)
 There are   204 symmetry adapted basis functions of A   symmetry.
 Integral buffers will be    131072 words long.
 Raffenetti 2 integral format.
 Two-electron integral symmetry is turned on.
   204 basis functions,   384 primitive gaussians,   204 cartesian basis functions
    48 alpha electrons       48 beta electrons
       nuclear repulsion energy       771.9885122977 Hartrees.
 NAtoms=   24 NActive=   24 NUniq=   24 SFac= 1.00D+00 NAtFMM=   50 NAOKFM=F Big=F
 One-electron integrals computed using PRISM.
 NBasis=   204 RedAO= T  NBF=   204
 NBsUse=   204 1.00D-06 NBFU=   204
 Initial guess read from the read-write file.
 B after Tr=     0.000000    0.000000    0.000000
         Rot=    1.000000    0.000000    0.000000    0.000000 Ang=   0.00 deg.
 Initial guess orbital symmetries:
       Occupied  (A) (A) (A) (A) (A) (A) (A) (A) (A) (A) (A) (A)
                 (A) (A) (A) (A) (A) (A) (A) (A) (A) (A) (A) (A)
                 (A) (A) (A) (A) (A) (A) (A) (A) (A) (A) (A) (A)
                 (A) (A) (A) (A) (A) (A) (A) (A) (A) (A) (A) (A)
       Virtual   (A) (A) (A) (A) (A) (A) (A) (A) (A) (A) (A) (A)
                 (A) (A) (A) (A) (A) (A) (A) (A) (A) (A) (A) (A)
                 (A) (A) (A) (A) (A) (A) (A) (A) (A) (A) (A) (A)
                 (A) (A) (A) (A) (A) (A) (A) (A) (A) (A) (A) (A)
                 (A) (A) (A) (A) (A) (A) (A) (A) (A) (A) (A) (A)
                 (A) (A) (A) (A) (A) (A) (A) (A) (A) (A) (A) (A)
                 (A) (A) (A) (A) (A) (A) (A) (A) (A) (A) (A) (A)
                 (A) (A) (A) (A) (A) (A) (A) (A) (A) (A) (A) (A)
                 (A) (A) (A) (A) (A) (A) (A) (A) (A) (A) (A) (A)
                 (A) (A) (A) (A) (A) (A) (A) (A) (A) (A) (A) (A)
                 (A) (A) (A) (A) (A) (A) (A) (A) (A) (A) (A) (A)
                 (A) (A) (A) (A) (A) (A) (A) (A) (A) (A) (A) (A)
                 (A) (A) (A) (A) (A) (A) (A) (A) (A) (A) (A) (A)
 Harris functional with IExCor=  402 diagonalized for initial guess.
 ExpMin= 1.61D-01 ExpMax= 5.48D+03 ExpMxC= 8.25D+02 IAcc=1 IRadAn=         1 AccDes= 0.00D+00
 HarFok:  IExCor=  402 AccDes= 0.00D+00 IRadAn=         1 IDoV= 1
 ScaDFX=  1.000000  1.000000  1.000000  1.000000
 FoFCou: FMM=F IPFlag=           0 FMFlag=      100000 FMFlg1=           0
         NFxFlg=           0 DoJE=T BraDBF=F KetDBF=T FulRan=T
         Omega=  0.000000  0.000000  1.000000  0.000000  0.000000 ICntrl=     500 IOpCl=  0
         NMat0=    1 NMatS0=    1 NMatT0=    0 NMatD0=    1 NMtDS0=    0 NMtDT0=    0
         I1Cent=           4 NGrid=           0.
 Petite list used in FoFCou.
 Requested convergence on RMS density matrix=1.00D-08 within 128 cycles.
 Requested convergence on MAX density matrix=1.00D-06.
 Requested convergence on             energy=1.00D-06.
 No special actions if energy rises.
 Keep R1 ints in memory in canonical form, NReq=223281144.
 Integral accuracy reduced to 1.0D-05 until final iterations.
 Initial convergence to 1.0D-05 achieved.  Increase integral accuracy.
 SCF Done:  E(RB3LYP) =  -687.087374317     A.U. after   13 cycles
             Convg  =    0.6409D-08             -V/T =  2.0087
 Calling FoFJK, ICntrl=      2127 FMM=F ISym2X=0 I1Cent= 0 IOpClX= 0 NMat=1 NMatS=1 NMatT=0.
 ***** Axes restored to original set *****
 -------------------------------------------------------------------
 Center     Atomic                   Forces (Hartrees/Bohr)
 Number     Number              X              Y              Z
 -------------------------------------------------------------------
      1        6          -0.001943049   -0.002527324    0.007269098
      2        8          -0.000486286   -0.000297093   -0.004547524
      3        1           0.000319543    0.000513022   -0.000417053
      4        1           0.002483882    0.001871454   -0.004132248
      5        1           0.004989358    0.003781320   -0.005719182
      6        6          -0.004633343   -0.007788079    0.009460699
      7        8           0.002595890    0.002385360   -0.007161632
      8        6          -0.005793641    0.009380481   -0.010893649
      9        6           0.002439019   -0.001354743    0.005541549
     10        6           0.001431902   -0.000522577   -0.004138589
     11        6           0.000926130   -0.001052125   -0.007764666
     12        1           0.001503967    0.000405997    0.002639606
     13        1          -0.001362778    0.000415778    0.001153564
     14        8           0.001254596   -0.002212885    0.003183213
     15        1          -0.000434383    0.000611649   -0.000593854
     16        1           0.002149256   -0.002525464   -0.000839205
     17        8           0.004558228   -0.000053503   -0.000071435
     18        1           0.000920394   -0.000077993    0.001296857
     19        1           0.000376253   -0.000737045    0.001336296
     20        8          -0.005177911    0.000445285    0.008104317
     21        1           0.000479213   -0.000075886    0.000168903
     22        1          -0.005794300    0.001218481    0.001970965
     23        8          -0.003427831   -0.002400309    0.005362346
     24        1           0.002625891    0.000596199   -0.001208377
 -------------------------------------------------------------------
 Cartesian Forces:  Max     0.010893649 RMS     0.003788891

 GradGradGradGradGradGradGradGradGradGradGradGradGradGradGradGradGradGrad
 Berny optimization.
 Using GEDIIS/GDIIS optimizer.
 Internal  Forces:  Max     0.017632247 RMS     0.004007321
 Search for a local minimum.
 Step number   2 out of a maximum of  125
 All quantities printed in internal units (Hartrees-Bohrs-Radians)
 Mixed Optimization -- RFO/linear search
 Update second derivatives using D2CorX and points    1    2
 DE= -9.76D-03 DEPred=-2.27D-02 R= 4.30D-01
 Trust test= 4.30D-01 RLast= 4.85D-01 DXMaxT set to 3.00D-01
 ITU=  0  0
 Use linear search instead of GDIIS.
     Eigenvalues ---    0.00237   0.00313   0.00383   0.00400   0.00484
     Eigenvalues ---    0.00562   0.01328   0.01374   0.01378   0.01398
     Eigenvalues ---    0.01513   0.03795   0.04021   0.04484   0.04774
     Eigenvalues ---    0.04907   0.05047   0.05497   0.05913   0.06536
     Eigenvalues ---    0.06872   0.07482   0.07583   0.08995   0.10854
     Eigenvalues ---    0.11134   0.13497   0.13849   0.15974   0.16000
     Eigenvalues ---    0.16000   0.16000   0.16007   0.16333   0.17819
     Eigenvalues ---    0.19279   0.20031   0.20382   0.21714   0.22076
     Eigenvalues ---    0.22363   0.24639   0.27921   0.28492   0.29341
     Eigenvalues ---    0.29504   0.30672   0.33877   0.34048   0.34154
     Eigenvalues ---    0.34207   0.34225   0.34395   0.34436   0.38713
     Eigenvalues ---    0.41288   0.41782   0.41950   0.42707   0.44787
     Eigenvalues ---    0.52652   0.52853   0.52881   0.52907   0.53022
     Eigenvalues ---    0.88218
 RFO step:  Lambda=-5.38715728D-03 EMin= 2.36637097D-03
 Quartic linear search produced a step of -0.25962.
 Iteration  1 RMS(Cart)=  0.10244463 RMS(Int)=  0.00286948
 Iteration  2 RMS(Cart)=  0.00484266 RMS(Int)=  0.00053300
 Iteration  3 RMS(Cart)=  0.00000873 RMS(Int)=  0.00053298
 Iteration  4 RMS(Cart)=  0.00000000 RMS(Int)=  0.00053298
 Variable       Old X    -DE/DX   Delta X   Delta X   Delta X     New X
                                 (Linear)    (Quad)   (Total)
    R1        2.68101  -0.00483  -0.00256  -0.00349  -0.00605   2.67497
    R2        2.08409   0.00144  -0.00484   0.01162   0.00678   2.09087
    R3        2.06367   0.00655   0.00008   0.01359   0.01367   2.07734
    R4        2.87591   0.00087  -0.00256   0.00655   0.00400   2.87991
    R5        1.83098   0.00008   0.00175  -0.00306  -0.00131   1.82967
    R6        2.29505  -0.00614   0.00857  -0.02073  -0.01216   2.28289
    R7        2.94212  -0.00485  -0.01436   0.01340  -0.00097   2.94116
    R8        2.94280  -0.01356  -0.01032  -0.01587  -0.02619   2.91661
    R9        2.07700   0.00130  -0.00189   0.00609   0.00421   2.08121
   R10        2.70272  -0.00358  -0.00392   0.00085  -0.00307   2.69965
   R11        2.92067   0.00021  -0.00266   0.00518   0.00252   2.92320
   R12        2.08286   0.00110  -0.00221   0.00627   0.00405   2.08691
   R13        2.70965  -0.00097  -0.00456   0.00649   0.00193   2.71157
   R14        2.88905   0.00234   0.00007   0.00562   0.00569   2.89474
   R15        2.07973   0.00090  -0.00237   0.00611   0.00374   2.08347
   R16        2.68577  -0.00237   0.00299  -0.00952  -0.00653   2.67924
   R17        2.08277   0.00133  -0.00348   0.00898   0.00550   2.08827
   R18        2.07289  -0.00015  -0.00173   0.00277   0.00103   2.07392
   R19        2.70148  -0.00253  -0.00272   0.00047  -0.00224   2.69923
   R20        1.83052  -0.00007   0.00181  -0.00336  -0.00156   1.82896
   R21        1.82629  -0.00124   0.00310  -0.00732  -0.00422   1.82206
   R22        1.82575   0.00051   0.00284  -0.00444  -0.00160   1.82415
   R23        1.82811  -0.00172   0.00247  -0.00684  -0.00437   1.82373
    A1        1.93038   0.00234  -0.00919   0.03308   0.02396   1.95434
    A2        1.93800   0.00290  -0.01146   0.03971   0.02834   1.96634
    A3        1.89859   0.00051   0.00737  -0.00637   0.00096   1.89955
    A4        1.91120  -0.00310   0.00399  -0.03519  -0.03138   1.87982
    A5        1.89392  -0.00111   0.00429  -0.01436  -0.01025   1.88367
    A6        1.89073  -0.00170   0.00526  -0.01891  -0.01385   1.87688
    A7        1.87109  -0.00106   0.00133  -0.00692  -0.00560   1.86549
    A8        2.07785   0.01447   0.01042   0.02564   0.03361   2.11146
    A9        2.15723  -0.01763  -0.02965   0.00254  -0.02945   2.12779
   A10        2.04686   0.00321   0.01948  -0.02259  -0.00537   2.04150
   A11        2.12538  -0.01727  -0.02850  -0.02780  -0.05667   2.06871
   A12        1.79703   0.00487   0.01883  -0.00593   0.01177   1.80880
   A13        1.83177   0.00671   0.01440  -0.01436   0.00092   1.83269
   A14        1.85627   0.00232   0.01885  -0.02020  -0.00256   1.85371
   A15        1.93471   0.00421  -0.01172   0.02203   0.00989   1.94459
   A16        1.90772   0.00010  -0.01049   0.05541   0.04495   1.95266
   A17        2.00778  -0.00399   0.00202  -0.01741  -0.01522   1.99256
   A18        1.85148   0.00239   0.00199  -0.00303  -0.00055   1.85092
   A19        1.96840  -0.00783  -0.01043  -0.02072  -0.03085   1.93755
   A20        1.82930  -0.00074   0.01249  -0.00906   0.00316   1.83246
   A21        1.88615   0.01051   0.00827   0.02763   0.03550   1.92165
   A22        1.91409  -0.00003  -0.01476   0.02482   0.00990   1.92399
   A23        1.92616   0.00007   0.00673  -0.00633   0.00042   1.92658
   A24        1.89842  -0.00129   0.00886  -0.02968  -0.02113   1.87729
   A25        1.97160  -0.00152  -0.01371   0.01401   0.00011   1.97171
   A26        1.82483   0.00192  -0.01302   0.04369   0.03082   1.85565
   A27        1.87926   0.00222   0.00324   0.00924   0.01239   1.89166
   A28        1.95796  -0.00109   0.00836  -0.02813  -0.02028   1.93768
   A29        1.91288  -0.00020   0.00691  -0.01267  -0.00579   1.90709
   A30        1.92413  -0.00240   0.00739  -0.02605  -0.01872   1.90541
   A31        1.86226   0.00056   0.00958  -0.01430  -0.00474   1.85752
   A32        1.90471   0.00007   0.00163  -0.00524  -0.00336   1.90135
   A33        1.92016   0.00031  -0.01040   0.02205   0.01184   1.93199
   A34        1.93938   0.00165  -0.01567   0.03568   0.02012   1.95950
   A35        1.87043   0.00121  -0.00061   0.00639   0.00578   1.87620
   A36        1.89895  -0.00081  -0.00469   0.00413  -0.00055   1.89840
   A37        1.88937   0.00012  -0.00133   0.00274   0.00141   1.89078
   A38        1.89146  -0.00011  -0.00211   0.00302   0.00090   1.89236
    D1        1.06821   0.00002  -0.00545   0.01158   0.00598   1.07419
    D2       -1.05737   0.00037   0.00264   0.00654   0.00935  -1.04803
    D3       -3.13651   0.00038  -0.00132   0.00984   0.00850  -3.12800
    D4        0.00413   0.00084  -0.00875   0.04811   0.04006   0.04419
    D5       -3.08245  -0.00052  -0.01629  -0.07529  -0.09229   3.10844
    D6        2.10528   0.00331  -0.01292   0.07586   0.06350   2.16878
    D7       -0.98130   0.00195  -0.02047  -0.04754  -0.06885  -1.05015
    D8       -2.10434  -0.00197  -0.00241   0.01506   0.01350  -2.09083
    D9        1.09227  -0.00332  -0.00996  -0.10834  -0.11885   0.97342
   D10        0.02047   0.00222  -0.01207   0.12890   0.11630   0.13677
   D11        2.09477  -0.00109   0.00936   0.08046   0.08947   2.18424
   D12       -2.19232   0.00346   0.01220   0.13372   0.14446  -2.04786
   D13       -3.06702   0.00054  -0.01936   0.00613  -0.01220  -3.07922
   D14       -0.99271  -0.00277   0.00206  -0.04231  -0.03903  -1.03174
   D15        1.00338   0.00178   0.00490   0.01095   0.01596   1.01934
   D16        2.98335  -0.00284   0.03570   0.01028   0.04643   3.02978
   D17        0.96994  -0.00134   0.01763   0.03280   0.05105   1.02099
   D18       -1.12563   0.00166   0.03980   0.01623   0.05674  -1.06890
   D19        0.93817  -0.00014   0.01490   0.05335   0.06800   1.00618
   D20       -1.07524   0.00136  -0.00318   0.07587   0.07263  -1.00261
   D21        3.11238   0.00436   0.01900   0.05931   0.07831  -3.09250
   D22       -1.13379  -0.00393   0.02324  -0.01310   0.00952  -1.12428
   D23        3.13598  -0.00243   0.00517   0.00942   0.01414  -3.13307
   D24        1.04041   0.00057   0.02735  -0.00714   0.01982   1.06023
   D25       -1.91971  -0.00709  -0.02306   0.00571  -0.01750  -1.93721
   D26        2.03813   0.00699   0.01065   0.03678   0.04740   2.08552
   D27       -0.00247   0.00163   0.00064   0.01498   0.01580   0.01333
   D28       -3.08100  -0.00124  -0.01160   0.00943  -0.00215  -3.08314
   D29       -1.08857   0.00037  -0.01847   0.04163   0.02298  -1.06559
   D30        1.09741  -0.00310  -0.01100  -0.00746  -0.01846   1.07895
   D31       -1.05487  -0.00089   0.00056  -0.00926  -0.00869  -1.06356
   D32        0.93755   0.00072  -0.00631   0.02294   0.01644   0.95399
   D33        3.12354  -0.00275   0.00116  -0.02615  -0.02500   3.09854
   D34        0.98548   0.00356  -0.00602   0.02749   0.02166   1.00714
   D35        2.97790   0.00517  -0.01290   0.05969   0.04679   3.02469
   D36       -1.11930   0.00170  -0.00542   0.01060   0.00535  -1.11395
   D37        2.06804   0.00027  -0.01472   0.00441  -0.01047   2.05758
   D38       -1.97581  -0.00250  -0.01348  -0.01210  -0.02600  -2.00181
   D39        0.00888   0.00222  -0.00231   0.00470   0.00297   0.01185
   D40        1.03314  -0.00184   0.01707  -0.09945  -0.08231   0.95083
   D41       -1.06372  -0.00029   0.00536  -0.06865  -0.06324  -1.12696
   D42        3.11165  -0.00125   0.01416  -0.08825  -0.07406   3.03759
   D43       -1.00551  -0.00142   0.01084  -0.08562  -0.07473  -1.08024
   D44       -3.10237   0.00013  -0.00087  -0.05482  -0.05567   3.12515
   D45        1.07300  -0.00083   0.00793  -0.07442  -0.06648   1.00652
   D46       -3.09085  -0.00221   0.00641  -0.08000  -0.07364   3.11869
   D47        1.09547  -0.00066  -0.00529  -0.04920  -0.05458   1.04090
   D48       -1.01234  -0.00163   0.00351  -0.06880  -0.06539  -1.07773
   D49       -2.20144   0.00008   0.00503  -0.03442  -0.02948  -2.23092
   D50        1.95043  -0.00059   0.00315  -0.04189  -0.03885   1.91158
[...]
    23  O    2.400426   3.357803   2.687496   2.672860   3.425918
    24  H    2.381409   3.402269   2.736474   2.110151   2.805762
                   16         17         18         19         20
    16  H    0.000000
    17  O    2.087484   0.000000
    18  H    2.467590   0.977407   0.000000
    19  H    2.385252   3.391253   3.519351   0.000000
    20  O    3.378867   2.988224   3.003389   2.076710   0.000000
    21  H    3.567515   3.288295   3.564510   2.243247   0.972930
    22  H    2.580497   3.484862   3.061463   2.349009   3.329305
    23  O    3.215599   2.686911   1.837240   3.338236   2.946493
    24  H    4.051552   3.622355   2.719309   4.032299   3.684669
                   21         22         23         24
    21  H    0.000000
    22  H    4.016759   0.000000
    23  O    3.831268   2.072593   0.000000
    24  H    4.621754   2.392767   0.973909   0.000000
 Stoichiometry    C6H12O6
 Framework group  C1[X(C6H12O6)]
 Deg. of freedom    66
 Full point group                 C1      NOp   1
 Largest Abelian subgroup         C1      NOp   1
 Largest concise Abelian subgroup C1      NOp   1
                         Standard orientation:                         
 ---------------------------------------------------------------------
 Center     Atomic      Atomic             Coordinates (Angstroms)
 Number     Number       Type             X           Y           Z
 ---------------------------------------------------------------------
      1          6           0       -3.208358    0.614010   -0.142152
      2          8           0       -4.373787   -0.177489   -0.123763
      3          1           0       -5.121317    0.411679    0.055074
      4          1           0       -3.091582    1.239151    0.756729
      5          1           0       -3.171085    1.303446   -1.003851
      6          6           0       -1.982772   -0.281162   -0.200583
      7          8           0       -2.047262   -1.490934   -0.087187
      8          6           0       -0.642744    0.447284   -0.392594
      9          6           0        0.538806   -0.529940   -0.201940
     10          6           0        1.891417    0.141019   -0.452682
     11          6           0        3.069626   -0.774584   -0.135308
     12          1           0        3.065921   -1.651387   -0.798880
     13          1           0        2.988408   -1.112674    0.902763
     14          8           0        4.242077    0.025114   -0.339102
     15          1           0        4.974168   -0.377490    0.149823
     16          1           0       -0.613203    0.792743   -1.446891
     17          8           0       -0.665727    1.546542    0.499033
     18          1           0        0.262422    1.830768    0.613396
     19          1           0        0.426834   -1.302575   -0.980642
     20          8           0        0.544940   -1.121907    1.084820
     21          1           0       -0.266578   -1.657230    1.123059
     22          1           0        1.938099    0.412759   -1.520593
     23          8           0        2.007258    1.325014    0.339151
     24          1           0        2.952073    1.560334    0.317956
 ---------------------------------------------------------------------
 Rotational constants (GHZ):      2.4957194      0.4148941      0.3785727

 **********************************************************************

            Population analysis using the SCF density.

 **********************************************************************

 Orbital symmetries:
       Occupied  (A) (A) (A) (A) (A) (A) (A) (A) (A) (A) (A) (A)
                 (A) (A) (A) (A) (A) (A) (A) (A) (A) (A) (A) (A)
                 (A) (A) (A) (A) (A) (A) (A) (A) (A) (A) (A) (A)
                 (A) (A) (A) (A) (A) (A) (A) (A) (A) (A) (A) (A)
       Virtual   (A) (A) (A) (A) (A) (A) (A) (A) (A) (A) (A) (A)
                 (A) (A) (A) (A) (A) (A) (A) (A) (A) (A) (A) (A)
                 (A) (A) (A) (A) (A) (A) (A) (A) (A) (A) (A) (A)
                 (A) (A) (A) (A) (A) (A) (A) (A) (A) (A) (A) (A)
                 (A) (A) (A) (A) (A) (A) (A) (A) (A) (A) (A) (A)
                 (A) (A) (A) (A) (A) (A) (A) (A) (A) (A) (A) (A)
                 (A) (A) (A) (A) (A) (A) (A) (A) (A) (A) (A) (A)
                 (A) (A) (A) (A) (A) (A) (A) (A) (A) (A) (A) (A)
                 (A) (A) (A) (A) (A) (A) (A) (A) (A) (A) (A) (A)
                 (A) (A) (A) (A) (A) (A) (A) (A) (A) (A) (A) (A)
                 (A) (A) (A) (A) (A) (A) (A) (A) (A) (A) (A) (A)
                 (A) (A) (A) (A) (A) (A) (A) (A) (A) (A) (A) (A)
                 (A) (A) (A) (A) (A) (A) (A) (A) (A) (A) (A) (A)
 The electronic state is 1-A.
 Alpha  occ. eigenvalues --  -19.16708 -19.15779 -19.15257 -19.14947 -19.13964
 Alpha  occ. eigenvalues --  -19.13646 -10.28151 -10.24722 -10.24479 -10.24340
 Alpha  occ. eigenvalues --  -10.24133 -10.24001  -1.05917  -1.04933  -1.02802
 Alpha  occ. eigenvalues --   -1.02024  -1.01131  -1.00697  -0.78144  -0.74953
 Alpha  occ. eigenvalues --   -0.71264  -0.65497  -0.58673  -0.54932  -0.53453
 Alpha  occ. eigenvalues --   -0.52732  -0.52093  -0.51507  -0.48982  -0.47439
 Alpha  occ. eigenvalues --   -0.46123  -0.45479  -0.43772  -0.42680  -0.41943
 Alpha  occ. eigenvalues --   -0.40484  -0.37680  -0.36753  -0.36340  -0.35015
 Alpha  occ. eigenvalues --   -0.34182  -0.32911  -0.29246  -0.28517  -0.28123
 Alpha  occ. eigenvalues --   -0.27437  -0.25631  -0.24792
 Alpha virt. eigenvalues --   -0.02455   0.05077   0.06598   0.08141   0.11217
 Alpha virt. eigenvalues --    0.12406   0.12718   0.13955   0.15610   0.16038
 Alpha virt. eigenvalues --    0.16545   0.17257   0.18422   0.18826   0.20257
 Alpha virt. eigenvalues --    0.21078   0.22057   0.22446   0.25156   0.27190
 Alpha virt. eigenvalues --    0.28714   0.31862   0.34901   0.39169   0.51620
 Alpha virt. eigenvalues --    0.53405   0.54549   0.55506   0.57009   0.57914
 Alpha virt. eigenvalues --    0.58279   0.59683   0.62004   0.64649   0.66417
 Alpha virt. eigenvalues --    0.67076   0.68411   0.69570   0.73012   0.75568
 Alpha virt. eigenvalues --    0.76190   0.78310   0.80435   0.80679   0.81573
 Alpha virt. eigenvalues --    0.81722   0.82492   0.83280   0.85969   0.86964
 Alpha virt. eigenvalues --    0.89068   0.89300   0.90610   0.92230   0.92896
 Alpha virt. eigenvalues --    0.93680   0.95090   0.96501   0.97381   1.00453
 Alpha virt. eigenvalues --    1.01396   1.02738   1.04079   1.06305   1.06606
 Alpha virt. eigenvalues --    1.09640   1.11779   1.14864   1.16591   1.20857
 Alpha virt. eigenvalues --    1.22470   1.24989   1.27834   1.29350   1.30321
 Alpha virt. eigenvalues --    1.32904   1.35982   1.39474   1.41809   1.44716
 Alpha virt. eigenvalues --    1.46713   1.49464   1.53043   1.56882   1.60174
 Alpha virt. eigenvalues --    1.62899   1.65872   1.66541   1.69633   1.70428
 Alpha virt. eigenvalues --    1.70932   1.73308   1.73615   1.75110   1.76171
 Alpha virt. eigenvalues --    1.79678   1.80925   1.81612   1.82848   1.85868
 Alpha virt. eigenvalues --    1.87708   1.91484   1.94849   1.95058   1.97218
 Alpha virt. eigenvalues --    1.99538   2.02055   2.03226   2.04804   2.05904
 Alpha virt. eigenvalues --    2.08816   2.10003   2.13181   2.14021   2.18050
 Alpha virt. eigenvalues --    2.20384   2.23030   2.27697   2.30809   2.34643
 Alpha virt. eigenvalues --    2.37494   2.38581   2.39097   2.41805   2.44270
 Alpha virt. eigenvalues --    2.45278   2.49174   2.49429   2.52297   2.55002
 Alpha virt. eigenvalues --    2.58794   2.62262   2.62699   2.65221   2.69812
 Alpha virt. eigenvalues --    2.72617   2.83396   2.84883   2.87457   2.90876
 Alpha virt. eigenvalues --    2.92507   2.95769   3.02208   3.08354   3.74807
 Alpha virt. eigenvalues --    3.76768   3.81199   3.86254   3.88643   4.03966
 Alpha virt. eigenvalues --    4.20011   4.28900   4.40181   4.48105   4.52946
 Alpha virt. eigenvalues --    4.66862
          Condensed to atoms (all electrons):
              1          2          3          4          5          6
     1  C    5.065364   0.247874  -0.023884   0.352176   0.353655   0.294510
     2  O    0.247874   8.216833   0.235104  -0.031525  -0.039172  -0.036400
     3  H   -0.023884   0.235104   0.391033  -0.005413  -0.002318   0.006343
     4  H    0.352176  -0.031525  -0.005413   0.564501  -0.046455  -0.027392
     5  H    0.353655  -0.039172  -0.002318  -0.046455   0.623115  -0.045978
     6  C    0.294510  -0.036400   0.006343  -0.027392  -0.045978   4.659001
     7  O   -0.071413   0.002110   0.000162  -0.000568   0.001197   0.543646
     8  C   -0.118519   0.002036  -0.000226   0.000039   0.010642   0.272271
     9  C    0.006877  -0.000018   0.000003  -0.000294   0.000037  -0.021801
    10  C   -0.000029   0.000000   0.000000   0.000002  -0.000004   0.003502
    11  C    0.000001   0.000000   0.000000   0.000000   0.000000  -0.000091
    12  H    0.000000   0.000000   0.000000   0.000000   0.000000   0.000003
    13  H    0.000000   0.000000   0.000000   0.000000   0.000000  -0.000002
    14  O    0.000000   0.000000   0.000000   0.000000   0.000000   0.000000
    15  H    0.000000   0.000000   0.000000   0.000000   0.000000   0.000000
    16  H   -0.001828  -0.000040  -0.000002   0.000862   0.001053  -0.043154
    17  O    0.005079   0.000078   0.000009   0.009362  -0.000740  -0.046508
    18  H   -0.000346  -0.000001   0.000000   0.000182  -0.000055   0.003675
    19  H    0.000298  -0.000004   0.000000  -0.000009  -0.000029  -0.001334
    20  O   -0.000104   0.000000   0.000000   0.000055  -0.000002   0.000792
    21  H    0.000626  -0.000004   0.000000  -0.000087  -0.000002   0.001800
    22  H    0.000002   0.000000   0.000000   0.000000  -0.000001  -0.000135
    23  O    0.000000   0.000000   0.000000   0.000000   0.000001  -0.000043
    24  H    0.000000   0.000000   0.000000   0.000000   0.000000   0.000012
              7          8          9         10         11         12
     1  C   -0.071413  -0.118519   0.006877  -0.000029   0.000001   0.000000
     2  O    0.002110   0.002036  -0.000018   0.000000   0.000000   0.000000
     3  H    0.000162  -0.000226   0.000003   0.000000   0.000000   0.000000
     4  H   -0.000568   0.000039  -0.000294   0.000002   0.000000   0.000000
     5  H    0.001197   0.010642   0.000037  -0.000004   0.000000   0.000000
     6  C    0.543646   0.272271  -0.021801   0.003502  -0.000091   0.000003
     7  O    8.022104  -0.079704   0.006113   0.000541   0.000004  -0.000001
     8  C   -0.079704   5.191515   0.280944  -0.027098   0.004692  -0.000173
     9  C    0.006113   0.280944   4.940818   0.328861  -0.030134   0.000726
    10  C    0.000541  -0.027098   0.328861   4.895507   0.356068  -0.039970
    11  C    0.000004   0.004692  -0.030134   0.356068   4.927287   0.347843
    12  H   -0.000001  -0.000173   0.000726  -0.039970   0.347843   0.636155
    13  H    0.000001   0.000189  -0.010045  -0.028304   0.358721  -0.043647
    14  O    0.000000  -0.000019   0.002274  -0.049518   0.231610  -0.039713
    15  H    0.000000   0.000004  -0.000224   0.005409  -0.021931  -0.000082
    16  H    0.002183   0.319943  -0.051025  -0.004686  -0.000120  -0.000003
    17  O    0.000885   0.230527  -0.027462  -0.005946  -0.000088   0.000004
    18  H   -0.000120  -0.027662  -0.007829  -0.005912   0.000664  -0.000021
    19  H    0.005528  -0.058570   0.344394  -0.051187  -0.005725   0.004039
    20  O   -0.010019  -0.050155   0.241169  -0.051093  -0.006140   0.000032
    21  H    0.028203  -0.009098  -0.025542   0.006812   0.000323  -0.000069
    22  H    0.000009  -0.005037  -0.050359   0.360941  -0.050833  -0.002161
    23  O   -0.000001  -0.003634  -0.036358   0.208051  -0.034761   0.003763
    24  H    0.000000  -0.000020   0.006686  -0.035800  -0.013065   0.001189
             13         14         15         16         17         18
     1  C    0.000000   0.000000   0.000000  -0.001828   0.005079  -0.000346
     2  O    0.000000   0.000000   0.000000  -0.000040   0.000078  -0.000001
     3  H    0.000000   0.000000   0.000000  -0.000002   0.000009   0.000000
     4  H    0.000000   0.000000   0.000000   0.000862   0.009362   0.000182
     5  H    0.000000   0.000000   0.000000   0.001053  -0.000740  -0.000055
     6  C   -0.000002   0.000000   0.000000  -0.043154  -0.046508   0.003675
     7  O    0.000001   0.000000   0.000000   0.002183   0.000885  -0.000120
     8  C    0.000189  -0.000019   0.000004   0.319943   0.230527  -0.027662
     9  C   -0.010045   0.002274  -0.000224  -0.051025  -0.027462  -0.007829
    10  C   -0.028304  -0.049518   0.005409  -0.004686  -0.005946  -0.005912
    11  C    0.358721   0.231610  -0.021931  -0.000120  -0.000088   0.000664
    12  H   -0.043647  -0.039713  -0.000082  -0.000003   0.000004  -0.000021
    13  H    0.571851  -0.033440  -0.006374  -0.000011  -0.000010   0.000005
    14  O   -0.033440   8.263908   0.238009  -0.000001   0.000000   0.000013
    15  H   -0.006374   0.238009   0.380264   0.000000   0.000000   0.000000
    16  H   -0.000011  -0.000001   0.000000   0.677307  -0.039739  -0.000260
    17  O   -0.000010   0.000000   0.000000  -0.039739   8.318025   0.232679
    18  H    0.000005   0.000013   0.000000  -0.000260   0.232679   0.312911
    19  H    0.000242  -0.000028  -0.000001   0.007563   0.003576   0.000129
    20  O    0.014001   0.000057   0.000009   0.003508   0.000286   0.001245
    21  H   -0.000388   0.000000  -0.000001   0.000301   0.000634  -0.000135
    22  H    0.006777   0.000509  -0.000210   0.003269  -0.000021   0.000454
    23  O   -0.000521  -0.010426   0.000416   0.000324  -0.016951   0.049923
    24  H   -0.000490   0.037224  -0.001700  -0.000022   0.000560  -0.001156
             19         20         21         22         23         24
     1  C    0.000298  -0.000104   0.000626   0.000002   0.000000   0.000000
     2  O   -0.000004   0.000000  -0.000004   0.000000   0.000000   0.000000
     3  H    0.000000   0.000000   0.000000   0.000000   0.000000   0.000000
     4  H   -0.000009   0.000055  -0.000087   0.000000   0.000000   0.000000
     5  H   -0.000029  -0.000002  -0.000002  -0.000001   0.000001   0.000000
     6  C   -0.001334   0.000792   0.001800  -0.000135  -0.000043   0.000012
     7  O    0.005528  -0.010019   0.028203   0.000009  -0.000001   0.000000
     8  C   -0.058570  -0.050155  -0.009098  -0.005037  -0.003634  -0.000020
     9  C    0.344394   0.241169  -0.025542  -0.050359  -0.036358   0.006686
    10  C   -0.051187  -0.051093   0.006812   0.360941   0.208051  -0.035800
    11  C   -0.005725  -0.006140   0.000323  -0.050833  -0.034761  -0.013065
    12  H    0.004039   0.000032  -0.000069  -0.002161   0.003763   0.001189
    13  H    0.000242   0.014001  -0.000388   0.006777  -0.000521  -0.000490
    14  O   -0.000028   0.000057   0.000000   0.000509  -0.010426   0.037224
    15  H   -0.000001   0.000009  -0.000001  -0.000210   0.000416  -0.001700
    16  H    0.007563   0.003508   0.000301   0.003269   0.000324  -0.000022
    17  O    0.003576   0.000286   0.000634  -0.000021  -0.016951   0.000560
    18  H    0.000129   0.001245  -0.000135   0.000454   0.049923  -0.001156
    19  H    0.659153  -0.035466  -0.005394   0.001284   0.003605  -0.000196
    20  O   -0.035466   8.298496   0.231042   0.003194   0.001661  -0.000201
    21  H   -0.005394   0.231042   0.355203  -0.000237  -0.000114   0.000017
    22  H    0.001284   0.003194  -0.000237   0.647581  -0.043930  -0.000883
    23  O    0.003605   0.001661  -0.000114  -0.043930   8.313277   0.234785
    24  H   -0.000196  -0.000201   0.000017  -0.000883   0.234785   0.353952
 Mulliken atomic charges:
              1
     1  C   -0.110338
     2  O   -0.596872
     3  H    0.399190
     4  H    0.184565
     5  H    0.145058
     6  C    0.437283
     7  O   -0.450858
     8  C    0.067113
     9  C    0.102189
    10  C    0.133853
    11  C   -0.064326
    12  H    0.132087
    13  H    0.171443
    14  O   -0.640459
    15  H    0.406412
    16  H    0.124578
    17  O   -0.664239
    18  H    0.441617
    19  H    0.128131
    20  O   -0.642366
    21  H    0.416111
    22  H    0.129788
    23  O   -0.669066
    24  H    0.419108
 Sum of Mulliken atomic charges =   0.00000
 Mulliken charges with hydrogens summed into heavy atoms:
              1
     1  C    0.219285
     2  O   -0.197683
     6  C    0.437283
     7  O   -0.450858
     8  C    0.191691
     9  C    0.230320
    10  C    0.263641
    11  C    0.239204
    14  O   -0.234047
    17  O   -0.222622
    20  O   -0.226255
    23  O   -0.249959
 Sum of Mulliken charges with hydrogens summed into heavy atoms =   0.00000
 Electronic spatial extent (au):  <R**2>=           2837.5238
 Charge=              0.0000 electrons
 Dipole moment (field-independent basis, Debye):
    X=              2.1495    Y=              1.2533    Z=             -0.9330  Tot=              2.6574
 Quadrupole moment (field-independent basis, Debye-Ang):
   XX=            -52.1109   YY=            -72.1470   ZZ=            -70.8033
   XY=            -12.6492   XZ=              2.1010   YZ=             -0.8088
 Traceless Quadrupole moment (field-independent basis, Debye-Ang):
   XX=             12.9095   YY=             -7.1266   ZZ=             -5.7829
   XY=            -12.6492   XZ=              2.1010   YZ=             -0.8088
 Octapole moment (field-independent basis, Debye-Ang**2):
  XXX=             23.3772  YYY=              3.2970  ZZZ=              3.8405  XYY=             15.1266
  XXY=             31.0830  XXZ=             33.8577  XZZ=             -3.8794  YZZ=              0.0131
  YYZ=              4.2242  XYZ=              4.8881
 Hexadecapole moment (field-independent basis, Debye-Ang**3):
 XXXX=          -1978.1603 YYYY=           -425.6382 ZZZZ=           -173.7486 XXXY=           -256.4507
 XXXZ=             80.4123 YYYX=             21.6504 YYYZ=             -0.4506 ZZZX=              0.6551
 ZZZY=             -1.4359 XXYY=           -513.4884 XXZZ=           -497.0386 YYZZ=            -94.2758
 XXYZ=              0.8314 YYXZ=              0.1850 ZZXY=              6.4254
 N-N= 7.848365983599D+02 E-N=-3.181599199436D+03  KE= 6.812411720442D+02

 Test job not archived.
 1\1\GINC-TERMINUS\FOpt\RB3LYP\6-31G(d)\C6H12O6\FRODOX\04-Jan-2018\0\\#
 B3LYP/6-31G* fopt test\\Sugars/S-R-S-Fructuose.xyz\\0,1\C,-1.003582970
 2,0.3830758165,0.6276385887\O,-0.4746572983,-0.1674107121,1.8117983127
 \H,-0.8384644887,0.3376152138,2.5537532596\H,-0.8611265149,1.472267764
 2,0.5515285186\H,-2.08800621,0.205860277,0.518743283\C,-0.3030812928,-
 0.2232493229,-0.5758879171\O,0.6669558115,-0.9506449766,-0.4734712968\
 C,-0.8903408158,0.1612904966,-1.9435253335\C,0.0345410143,-0.316324045
 1,-3.0853887511\C,-0.5484362226,-0.0134910054,-4.4677936931\C,0.415005
 301,-0.3558832911,-5.5999512144\H,0.6232690008,-1.4354718008,-5.615448
 4264\H,1.353488686,0.1861270211,-5.4451384538\O,-0.2432436616,0.062649
 8574,-6.8029595466\H,0.4264753351,0.177792954,-7.4923893463\H,-1.84827
 0688,-0.3893596149,-2.0479860021\O,-1.1133099338,1.5582893365,-1.89278
 58231\H,-1.191479241,1.8608211657,-2.818900901\H,0.0820594863,-1.41486
 59599,-3.0027575438\O,1.3327451831,0.2429813324,-2.9956272945\H,1.7062
 680344,-0.1108673674,-2.1698762183\H,-1.4596595838,-0.6230817231,-4.58
 8324206\O,-0.8924217785,1.3702295081,-4.5639900642\H,-1.0236741524,1.5
 398800759,-5.5139849307\\Version=EM64L-G09RevB.01\State=1-A\HF=-687.13
 30091\RMSD=6.006e-09\RMSF=1.434e-05\Dipole=-0.5594069,0.0824647,-0.879
 381\Quadrupole=-3.2239947,-5.6355379,8.8595326,0.5083348,-8.8125185,4.
 7266547\PG=C01 [X(C6H12O6)]\\@


 BREAD HAS TO MOLD IN ORDER TO GET PENICILLIN.
          -- JERRY BOATZ
 Job cpu time:  0 days  0 hours 44 minutes 38.7 seconds.
 File lengths (MBytes):  RWF=     27 Int=      0 D2E=      0 Chk=      4 Scr=      1
 Normal termination of Gaussian 09 at Thu Jan  4 16:59:37 2018.
