 Entering Gaussian System, Link 0=g09
 Input=r-tmp.inp
 Output=r-tmp.log
 Initial command:
 /usr/local/g09/l1.exe /home/g09scr/Gau-23534.inp -scrdir=/home/g09scr/
 Entering Link 1 = /usr/local/g09/l1.exe PID=     23536.
  
 Copyright (c) 1988,1990,1992,1993,1995,1998,2003,2009,2010,
            Gaussian, Inc.  All Rights Reserved.
  
 This is part of the Gaussian(R) 09 program.  It is based on
 the Gaussian(R) 03 system (copyright 2003, Gaussian, Inc.),
 the Gaussian(R) 98 system (copyright 1998, Gaussian, Inc.),
 the Gaussian(R) 94 system (copyright 1995, Gaussian, Inc.),
 the Gaussian 92(TM) system (copyright 1992, Gaussian, Inc.),
 the Gaussian 90(TM) system (copyright 1990, Gaussian, Inc.),
 the Gaussian 88(TM) system (copyright 1988, Gaussian, Inc.),
 the Gaussian 86(TM) system (copyright 1986, Carnegie Mellon
 University), and the Gaussian 82(TM) system (copyright 1983,
 Carnegie Mellon University). Gaussian is a federally registered
 trademark of Gaussian, Inc.
  
 This software contains proprietary and confidential information,
 including trade secrets, belonging to Gaussian, Inc.
  
 This software is provided under written license and may be
 used, copied, transmitted, or stored only in accord with that
 written license.
  
 The following legend is applicable only to US Government
 contracts under FAR:
  
                    RESTRICTED RIGHTS LEGEND
  
 Use, reproduction and disclosure by the US Government is
 subject to restrictions as set forth in subparagraphs (a)
 and (c) of the Commercial Computer Software - Restricted
 Rights clause in FAR 52.227-19.
  
 Gaussian, Inc.
 340 Quinnipiac St., Bldg. 40, Wallingford CT 06492
  
  
 ---------------------------------------------------------------
 Warning -- This program may not be used in any manner that
 competes with the business of Gaussian, Inc. or will provide
 assistance to any competitor of Gaussian, Inc.  The licensee
 of this program is prohibited from giving any competitor of
 Gaussian, Inc. access to this program.  By using this program,
 the user acknowledges that Gaussian, Inc. is engaged in the
 business of creating and licensing software in the field of
 computational chemistry and represents and warrants to the
 licensee that it is not a competitor of Gaussian, Inc. and that
 it will not use this program in any manner prohibited above.
 ---------------------------------------------------------------
  

 Cite this work as:
 Gaussian 09, Revision B.01,
 M. J. Frisch, G. W. Trucks, H. B. Schlegel, G. E. Scuseria, 
 M. A. Robb, J. R. Cheeseman, G. Scalmani, V. Barone, B. Mennucci, 
 G. A. Petersson, H. Nakatsuji, M. Caricato, X. Li, H. P. Hratchian, 
 A. F. Izmaylov, J. Bloino, G. Zheng, J. L. Sonnenberg, M. Hada, 
 M. Ehara, K. Toyota, R. Fukuda, J. Hasegawa, M. Ishida, T. Nakajima, 
 Y. Honda, O. Kitao, H. Nakai, T. Vreven, J. A. Montgomery, Jr., 
 J. E. Peralta, F. Ogliaro, M. Bearpark, J. J. Heyd, E. Brothers, 
 K. N. Kudin, V. N. Staroverov, T. Keith, R. Kobayashi, J. Normand, 
 K. Raghavachari, A. Rendell, J. C. Burant, S. S. Iyengar, J. Tomasi, 
 M. Cossi, N. Rega, J. M. Millam, M. Klene, J. E. Knox, J. B. Cross, 
 V. Bakken, C. Adamo, J. Jaramillo, R. Gomperts, R. E. Stratmann, 
 O. Yazyev, A. J. Austin, R. Cammi, C. Pomelli, J. W. Ochterski, 
 R. L. Martin, K. Morokuma, V. G. Zakrzewski, G. A. Voth, 
 P. Salvador, J. J. Dannenberg, S. Dapprich, A. D. Daniels, 
 O. Farkas, J. B. Foresman, J. V. Ortiz, J. Cioslowski, 
 and D. J. Fox, Gaussian, Inc., Wallingford CT, 2010.
 
 ******************************************
 Gaussian 09:  EM64L-G09RevB.01 12-Aug-2010
                23-Jan-2018 
 ******************************************
 %nproc=4
 Will use up to    4 processors via shared memory.
 %mem=60gb
 ---------------------------
 #B3LYP/3-21G fopt test freq
 ---------------------------
 1/14=-1,18=20,19=15,26=3,38=1/1,3;
 2/9=110,12=2,14=103,17=6,18=5,40=1/2;
 3/5=5,11=2,16=1,25=1,30=1,71=1,74=-5/1,2,3;
 4//1;
 5/5=2,38=5/2;
 6/7=2,8=2,9=2,10=2,28=1/1;
 7//1,2,3,16;
 1/14=-1,18=20,19=15/3(2);
 2/9=110/2;
 99//99;
 2/9=110/2;
 3/5=5,11=2,16=1,25=1,30=1,71=1,74=-5/1,2,3;
 4/5=5,16=3/1;
 5/5=2,38=5/2;
 7//1,2,3,16;
 1/14=-1,18=20,19=15/3(-5);
 2/9=110/2;
 6/7=2,8=2,9=2,10=2,19=2,28=1/1;
 99/9=1/99;
 ------------------------------
 SymmetricEnantiomers/r-tmp.xyz
 ------------------------------
 Symbolic Z-matrix:
 Charge =  0 Multiplicity = 1
 C                    -0.48367  -0.19707  -0.88164 
 I                     0.98547  -0.8053    0.46336 
 H                    -0.1337   -0.11865  -1.91364 
 F                    -1.51652  -1.07955  -0.84853 
 Br                   -1.13017   1.56678  -0.37751 
 

 GradGradGradGradGradGradGradGradGradGradGradGradGradGradGradGradGradGrad
 Berny optimization.
 Initialization pass.
                           ----------------------------
                           !    Initial Parameters    !
                           ! (Angstroms and Degrees)  !
 --------------------------                            --------------------------
 ! Name  Definition              Value          Derivative Info.                !
 --------------------------------------------------------------------------------
 ! R1    R(1,2)                  2.0826         estimate D2E/DX2                !
 ! R2    R(1,3)                  1.0925         estimate D2E/DX2                !
 ! R3    R(1,4)                  1.3589         estimate D2E/DX2                !
 ! R4    R(1,5)                  1.9451         estimate D2E/DX2                !
 ! A1    A(2,1,3)              113.8929         estimate D2E/DX2                !
 ! A2    A(2,1,4)              109.3155         estimate D2E/DX2                !
 ! A3    A(2,1,5)              109.3854         estimate D2E/DX2                !
 ! A4    A(3,1,4)              108.2455         estimate D2E/DX2                !
 ! A5    A(3,1,5)              106.6308         estimate D2E/DX2                !
 ! A6    A(4,1,5)              109.2662         estimate D2E/DX2                !
 ! D1    D(2,1,4,3)           -124.5728         estimate D2E/DX2                !
 ! D2    D(2,1,5,3)            123.5881         estimate D2E/DX2                !
 ! D3    D(2,1,5,4)           -119.633          estimate D2E/DX2                !
 ! D4    D(3,1,5,4)            116.7789         estimate D2E/DX2                !
 --------------------------------------------------------------------------------
 Trust Radius=3.00D-01 FncErr=1.00D-07 GrdErr=1.00D-06
 Number of steps in this run=     24 maximum allowed number of steps=    100.
 GradGradGradGradGradGradGradGradGradGradGradGradGradGradGradGradGradGrad

                          Input orientation:                          
 ---------------------------------------------------------------------
 Center     Atomic      Atomic             Coordinates (Angstroms)
 Number     Number       Type             X           Y           Z
 ---------------------------------------------------------------------
      1          6           0       -0.483672   -0.197070   -0.881637
      2         53           0        0.985465   -0.805297    0.463360
      3          1           0       -0.133704   -0.118653   -1.913640
      4          9           0       -1.516520   -1.079550   -0.848527
      5         35           0       -1.130170    1.566780   -0.377505
 ---------------------------------------------------------------------
                    Distance matrix (angstroms):
                    1          2          3          4          5
     1  C    0.000000
     2  I    2.082623   0.000000
     3  H    1.092546   2.715538   0.000000
     4  F    1.358912   2.838343   1.992478   0.000000
     5  Br   1.945064   3.287813   2.488642   2.715546   0.000000
 Stoichiometry    CHBrFI
 Framework group  C1[X(CHBrFI)]
 Deg. of freedom     9
 Full point group                 C1      NOp   1
 Largest Abelian subgroup         C1      NOp   1
 Largest concise Abelian subgroup C1      NOp   1
                         Standard orientation:                         
 ---------------------------------------------------------------------
 Center     Atomic      Atomic             Coordinates (Angstroms)
 Number     Number       Type             X           Y           Z
 ---------------------------------------------------------------------
      1          6           0       -0.398567    0.771777    0.453939
      2         53           0        1.387673   -0.189546   -0.017785
      3          1           0       -0.511289    0.999586    1.516509
      4          9           0       -0.479663    1.936264   -0.241787
      5         35           0       -1.895057   -0.371734   -0.032041
 ---------------------------------------------------------------------
 Rotational constants (GHZ):      5.0200150      0.9364747      0.8042060
 Standard basis: 3-21G (6D, 7F)
 There are    76 symmetry adapted basis functions of A   symmetry.
 Integral buffers will be    131072 words long.
 Raffenetti 2 integral format.
 Two-electron integral symmetry is turned on.
    76 basis functions,   177 primitive gaussians,    76 cartesian basis functions
    52 alpha electrons       52 beta electrons
       nuclear repulsion energy       630.9086775369 Hartrees.
 NAtoms=    5 NActive=    5 NUniq=    5 SFac= 1.00D+00 NAtFMM=   50 NAOKFM=F Big=F
 One-electron integrals computed using PRISM.
 NBasis=    76 RedAO= T  NBF=    76
 NBsUse=    76 1.00D-06 NBFU=    76
 Defaulting to unpruned grid for atomic number  53.
 Harris functional with IExCor=  402 diagonalized for initial guess.
 ExpMin= 1.15D-01 ExpMax= 1.44D+04 ExpMxC= 1.44D+04 IAcc=1 IRadAn=         1 AccDes= 0.00D+00
 HarFok:  IExCor=  402 AccDes= 0.00D+00 IRadAn=         1 IDoV= 1
 ScaDFX=  1.000000  1.000000  1.000000  1.000000
 Defaulting to unpruned grid for atomic number  53.
 Defaulting to unpruned grid for atomic number  53.
 Defaulting to unpruned grid for atomic number  53.
 Defaulting to unpruned grid for atomic number  53.
 FoFCou: FMM=F IPFlag=           0 FMFlag=      100000 FMFlg1=           0
         NFxFlg=           0 DoJE=T BraDBF=F KetDBF=T FulRan=T
         Omega=  0.000000  0.000000  1.000000  0.000000  0.000000 ICntrl=     500 IOpCl=  0
         NMat0=    1 NMatS0=    1 NMatT0=    0 NMatD0=    1 NMtDS0=    0 NMtDT0=    0
         I1Cent=           4 NGrid=           0.
 Petite list used in FoFCou.
 Initial guess orbital symmetries:
       Occupied  (A) (A) (A) (A) (A) (A) (A) (A) (A) (A) (A) (A)
                 (A) (A) (A) (A) (A) (A) (A) (A) (A) (A) (A) (A)
                 (A) (A) (A) (A) (A) (A) (A) (A) (A) (A) (A) (A)
                 (A) (A) (A) (A) (A) (A) (A) (A) (A) (A) (A) (A)
                 (A) (A) (A) (A)
       Virtual   (A) (A) (A) (A) (A) (A) (A) (A) (A) (A) (A) (A)
                 (A) (A) (A) (A) (A) (A) (A) (A) (A) (A) (A) (A)
 The electronic state of the initial guess is 1-A.
 Requested convergence on RMS density matrix=1.00D-08 within 128 cycles.
 Requested convergence on MAX density matrix=1.00D-06.
 Requested convergence on             energy=1.00D-06.
 No special actions if energy rises.
 Keep R1 ints in memory in canonical form, NReq=5269511.
 Integral accuracy reduced to 1.0D-05 until final iterations.
 Defaulting to unpruned grid for atomic number  53.
 Defaulting to unpruned grid for atomic number  53.
 Defaulting to unpruned grid for atomic number  53.
 Defaulting to unpruned grid for atomic number  53.
 Initial convergence to 1.0D-05 achieved.  Increase integral accuracy.
 DSYEVD returned Info=         153 IAlg= 4 N=    76 NDim=    76 NE2=   105904038 trying DSYEV.
 SCF Done:  E(RB3LYP) =  -9590.11966496     A.U. after   15 cycles
             Convg  =    0.2600D-08             -V/T =  2.0019

 **********************************************************************

            Population analysis using the SCF density.

 **********************************************************************

 Orbital symmetries:
       Occupied  (A) (A) (A) (A) (A) (A) (A) (A) (A) (A) (A) (A)
                 (A) (A) (A) (A) (A) (A) (A) (A) (A) (A) (A) (A)
                 (A) (A) (A) (A) (A) (A) (A) (A) (A) (A) (A) (A)
                 (A) (A) (A) (A) (A) (A) (A) (A) (A) (A) (A) (A)
                 (A) (A) (A) (A)
       Virtual   (A) (A) (A) (A) (A) (A) (A) (A) (A) (A) (A) (A)
                 (A) (A) (A) (A) (A) (A) (A) (A) (A) (A) (A) (A)
 The electronic state is 1-A.
 Alpha  occ. eigenvalues -- **********-479.55282-175.58320-164.34632-164.34381
 Alpha  occ. eigenvalues -- -164.34378 -62.10818 -55.71245 -55.70781 -55.70770
 Alpha  occ. eigenvalues --  -35.74790 -30.91167 -30.90512 -30.90501 -24.58365
 Alpha  occ. eigenvalues --  -22.83704 -22.83478 -22.83469 -22.82999 -22.82999
 Alpha  occ. eigenvalues --  -10.30161  -8.62460  -6.41995  -6.40341  -6.40296
 Alpha  occ. eigenvalues --   -6.38093  -4.69146  -4.67400  -4.67376  -2.51367
 Alpha  occ. eigenvalues --   -2.50708  -2.50679  -2.49353  -2.49352  -2.06988
 Alpha  occ. eigenvalues --   -2.06400  -2.06383  -2.04891  -2.04889  -1.23788
 Alpha  occ. eigenvalues --   -0.83464  -0.72330  -0.63338  -0.53865  -0.49106
 Alpha  occ. eigenvalues --   -0.47756  -0.37055  -0.35034  -0.30586  -0.29286
 Alpha  occ. eigenvalues --   -0.27536  -0.26222
 Alpha virt. eigenvalues --   -0.05759   0.00250   0.10545   0.13519   0.33360
 Alpha virt. eigenvalues --    0.38919   0.39987   0.40193   0.58335   0.62083
 Alpha virt. eigenvalues --    0.62462   0.67172   0.71767   0.76426   0.81052
 Alpha virt. eigenvalues --    0.96770   1.49751   1.90119   1.92313   2.01552
 Alpha virt. eigenvalues --    3.48932   4.13615  23.55832 225.78566
          Condensed to atoms (all electrons):
              1          2          3          4          5
     1  C    5.629172   0.182893   0.300230   0.178399   0.147969
     2  I    0.182893  52.687711  -0.038972  -0.028323  -0.074855
     3  H    0.300230  -0.038972   0.534131  -0.032555  -0.049807
     4  F    0.178399  -0.028323  -0.032555   9.166120  -0.033158
     5  Br   0.147969  -0.074855  -0.049807  -0.033158  34.879222
 Mulliken atomic charges:
              1
     1  C   -0.438663
     2  I    0.271544
     3  H    0.286973
     4  F   -0.250483
     5  Br   0.130629
 Sum of Mulliken atomic charges =   0.00000
 Mulliken charges with hydrogens summed into heavy atoms:
              1
     1  C   -0.151690
     2  I    0.271544
     4  F   -0.250483
     5  Br   0.130629
 Sum of Mulliken charges with hydrogens summed into heavy atoms =   0.00000
 Electronic spatial extent (au):  <R**2>=           1128.0748
 Charge=              0.0000 electrons
 Dipole moment (field-independent basis, Debye):
    X=              0.3159    Y=             -0.2003    Z=              1.3446  Tot=              1.3956
 Quadrupole moment (field-independent basis, Debye-Ang):
   XX=            -56.9520   YY=            -58.5292   ZZ=            -55.9204
   XY=             -0.4278   XZ=             -0.9903   YZ=              2.0489
 Traceless Quadrupole moment (field-independent basis, Debye-Ang):
   XX=              0.1819   YY=             -1.3953   ZZ=              1.2135
   XY=             -0.4278   XZ=             -0.9903   YZ=              2.0489
 Octapole moment (field-independent basis, Debye-Ang**2):
  XXX=              4.3748  YYY=             -9.9802  ZZZ=             -0.8059  XYY=             -0.0861
  XXY=             -8.4762  XXZ=             -4.4029  XZZ=             -1.5926  YZZ=              0.3528
  YYZ=              0.3183  XYZ=             -0.8278
 Hexadecapole moment (field-independent basis, Debye-Ang**3):
 XXXX=           -757.9366 YYYY=           -218.6501 ZZZZ=            -78.2564 XXXY=              2.3841
 XXXZ=              0.9687 YYYX=              5.6746 YYYZ=              0.0593 ZZZX=             -0.3098
 ZZZY=             -0.1232 XXYY=           -159.6927 XXZZ=           -146.6332 YYZZ=            -46.9939
 XXYZ=              2.8464 YYXZ=             -0.2314 ZZXY=             -0.2121
 N-N= 6.309086775369D+02 E-N=-2.407057712335D+04  KE= 9.572142390031D+03
 Calling FoFJK, ICntrl=      2127 FMM=F ISym2X=0 I1Cent= 0 IOpClX= 0 NMat=1 NMatS=1 NMatT=0.
 Defaulting to unpruned grid for atomic number  53.
 Defaulting to unpruned grid for atomic number  53.
 Defaulting to unpruned grid for atomic number  53.
 Defaulting to unpruned grid for atomic number  53.
 ***** Axes restored to original set *****
 -------------------------------------------------------------------
 Center     Atomic                   Forces (Hartrees/Bohr)
 Number     Number              X              Y              Z
 -------------------------------------------------------------------
      1        6          -0.006171245    0.009914820   -0.030162530
      2       53           0.037822577   -0.018731134    0.023879874
      3        1           0.006575182    0.001102207    0.005539938
      4        9          -0.024716087   -0.020137758    0.000080484
      5       35          -0.013510427    0.027851865    0.000662233
 -------------------------------------------------------------------
 Cartesian Forces:  Max     0.037822577 RMS     0.019057935

 GradGradGradGradGradGradGradGradGradGradGradGradGradGradGradGradGradGrad
 Berny optimization.
 Internal  Forces:  Max     0.047571420 RMS     0.018623736
 Search for a local minimum.
 Step number   1 out of a maximum of   24
 All quantities printed in internal units (Hartrees-Bohrs-Radians)
 Mixed Optimization -- RFO/linear search
 Second derivative matrix not updated -- first step.
 The second derivative matrix:
                          R1        R2        R3        R4        A1
           R1           0.14617
           R2           0.00000   0.34520
           R3           0.00000   0.00000   0.53168
           R4           0.00000   0.00000   0.00000   0.16215
           A1           0.00000   0.00000   0.00000   0.00000   0.16000
           A2           0.00000   0.00000   0.00000   0.00000   0.00000
           A3           0.00000   0.00000   0.00000   0.00000   0.00000
           A4           0.00000   0.00000   0.00000   0.00000   0.00000
           A5           0.00000   0.00000   0.00000   0.00000   0.00000
           A6           0.00000   0.00000   0.00000   0.00000   0.00000
           D1           0.00000   0.00000   0.00000   0.00000   0.00000
           D2           0.00000   0.00000   0.00000   0.00000   0.00000
           D3           0.00000   0.00000   0.00000   0.00000   0.00000
           D4           0.00000   0.00000   0.00000   0.00000   0.00000
                          A2        A3        A4        A5        A6
           A2           0.25000
           A3           0.00000   0.25000
           A4           0.00000   0.00000   0.16000
           A5           0.00000   0.00000   0.00000   0.16000
           A6           0.00000   0.00000   0.00000   0.00000   0.25000
           D1           0.00000   0.00000   0.00000   0.00000   0.00000
           D2           0.00000   0.00000   0.00000   0.00000   0.00000
           D3           0.00000   0.00000   0.00000   0.00000   0.00000
           D4           0.00000   0.00000   0.00000   0.00000   0.00000
                          D1        D2        D3        D4
           D1           0.01971
           D2           0.00000   0.00230
           D3           0.00000   0.00000   0.00230
           D4           0.00000   0.00000   0.00000   0.00230
 ITU=  0
     Eigenvalues ---    0.05964   0.07417   0.10428   0.14617   0.16215
     Eigenvalues ---    0.21336   0.23757   0.34520   0.53168
 RFO step:  Lambda=-2.37913803D-02 EMin= 5.96368590D-02
 Linear search not attempted -- first point.
 Maximum step size (   0.300) exceeded in Quadratic search.
    -- Step size scaled by   0.858
 Iteration  1 RMS(Cart)=  0.08839255 RMS(Int)=  0.01036975
 Iteration  2 RMS(Cart)=  0.00976443 RMS(Int)=  0.00063535
 Iteration  3 RMS(Cart)=  0.00001117 RMS(Int)=  0.00063530
 Iteration  4 RMS(Cart)=  0.00000001 RMS(Int)=  0.00063530
 Variable       Old X    -DE/DX   Delta X   Delta X   Delta X     New X
                                 (Linear)    (Quad)   (Total)
    R1        3.93559   0.04757   0.00000   0.24009   0.24009   4.17568
    R2        2.06461  -0.00305   0.00000  -0.00709  -0.00709   2.05753
    R3        2.56797   0.03187   0.00000   0.04921   0.04921   2.61718
    R4        3.67564   0.02992   0.00000   0.13803   0.13803   3.81367
    A1        1.98781  -0.00800   0.00000  -0.06149  -0.06062   1.92718
    A2        1.90792  -0.00215   0.00000   0.00945   0.00801   1.91592
    A3        1.90914   0.01912   0.00000   0.07489   0.07460   1.98374
    A4        1.88924   0.00458   0.00000   0.01237   0.01220   1.90144
    A5        1.86106  -0.00839   0.00000  -0.03316  -0.03267   1.82839
    A6        1.90706  -0.00549   0.00000  -0.00206  -0.00290   1.90415
    D1       -2.17421   0.00831   0.00000   0.06204   0.06195  -2.11226
    D2        2.15702  -0.00361   0.00000  -0.05090  -0.05182   2.10520
    D3       -2.08799  -0.00558   0.00000  -0.05538  -0.05633  -2.14432
    D4        2.03818  -0.00197   0.00000  -0.00448  -0.00451   2.03366
         Item               Value     Threshold  Converged?
 Maximum Force            0.047571     0.000450     NO 
 RMS     Force            0.018624     0.000300     NO 
 Maximum Displacement     0.204382     0.001800     NO 
 RMS     Displacement     0.096098     0.001200     NO 
 Predicted change in Energy=-1.285549D-02
 GradGradGradGradGradGradGradGradGradGradGradGradGradGradGradGradGradGrad

                          Input orientation:                          
 ---------------------------------------------------------------------
 Center     Atomic      Atomic             Coordinates (Angstroms)
 Number     Number       Type             X           Y           Z
 ---------------------------------------------------------------------
      1          6           0       -0.500057   -0.192567   -0.872238
      2         53           0        1.093619   -0.889823    0.490368
      3          1           0       -0.119490   -0.105100   -1.888601
      4          9           0       -1.552343   -1.092948   -0.862066
      5         35           0       -1.200331    1.646648   -0.425411
 ---------------------------------------------------------------------
                    Distance matrix (angstroms):
                    1          2          3          4          5
     1  C    0.000000
     2  I    2.209675   0.000000
     3  H    1.088796   2.783329   0.000000
     4  F    1.384953   2.978498   2.020566   0.000000
     5  Br   2.018106   3.540417   2.525423   2.796421   0.000000
 Stoichiometry    CHBrFI
 Framework group  C1[X(CHBrFI)]
 Deg. of freedom     9
 Full point group                 C1      NOp   1
 Largest Abelian subgroup         C1      NOp   1
 Largest concise Abelian subgroup C1      NOp   1
                         Standard orientation:                         
 ---------------------------------------------------------------------
 Center     Atomic      Atomic             Coordinates (Angstroms)
 Number     Number       Type             X           Y           Z
 ---------------------------------------------------------------------
      1          6           0       -0.443164    0.763811    0.439224
      2         53           0        1.497601   -0.188512   -0.018137
      3          1           0       -0.536202    0.941678    1.509356
      4          9           0       -0.540143    1.973687   -0.227777
      5         35           0       -2.037610   -0.379903   -0.032384
 ---------------------------------------------------------------------
 Rotational constants (GHZ):      4.8909749      0.8080873      0.7044533
 Standard basis: 3-21G (6D, 7F)
 There are    76 symmetry adapted basis functions of A   symmetry.
 Integral buffers will be    131072 words long.
 Raffenetti 2 integral format.
 Two-electron integral symmetry is turned on.
    76 basis functions,   177 primitive gaussians,    76 cartesian basis functions
    52 alpha electrons       52 beta electrons
       nuclear repulsion energy       596.1542774809 Hartrees.
 NAtoms=    5 NActive=    5 NUniq=    5 SFac= 1.00D+00 NAtFMM=   50 NAOKFM=F Big=F
 One-electron integrals computed using PRISM.
 NBasis=    76 RedAO= T  NBF=    76
 NBsUse=    76 1.00D-06 NBFU=    76
 Defaulting to unpruned grid for atomic number  53.
 Initial guess read from the read-write file.
 B after Tr=     0.000000    0.000000    0.000000
         Rot=    1.000000    0.000000    0.000000    0.000000 Ang=   0.00 deg.
 Initial guess orbital symmetries:
       Occupied  (A) (A) (A) (A) (A) (A) (A) (A) (A) (A) (A) (A)
                 (A) (A) (A) (A) (A) (A) (A) (A) (A) (A) (A) (A)
                 (A) (A) (A) (A) (A) (A) (A) (A) (A) (A) (A) (A)
                 (A) (A) (A) (A) (A) (A) (A) (A) (A) (A) (A) (A)
                 (A) (A) (A) (A)
       Virtual   (A) (A) (A) (A) (A) (A) (A) (A) (A) (A) (A) (A)
                 (A) (A) (A) (A) (A) (A) (A) (A) (A) (A) (A) (A)
 Harris functional with IExCor=  402 diagonalized for initial guess.
 ExpMin= 1.15D-01 ExpMax= 1.44D+04 ExpMxC= 1.44D+04 IAcc=1 IRadAn=         1 AccDes= 0.00D+00
 HarFok:  IExCor=  402 AccDes= 0.00D+00 IRadAn=         1 IDoV= 1
 ScaDFX=  1.000000  1.000000  1.000000  1.000000
 Defaulting to unpruned grid for atomic number  53.
 Defaulting to unpruned grid for atomic number  53.
 Defaulting to unpruned grid for atomic number  53.
 Defaulting to unpruned grid for atomic number  53.
 FoFCou: FMM=F IPFlag=           0 FMFlag=      100000 FMFlg1=           0
         NFxFlg=           0 DoJE=T BraDBF=F KetDBF=T FulRan=T
         Omega=  0.000000  0.000000  1.000000  0.000000  0.000000 ICntrl=     500 IOpCl=  0
         NMat0=    1 NMatS0=    1 NMatT0=    0 NMatD0=    1 NMtDS0=    0 NMtDT0=    0
         I1Cent=           4 NGrid=           0.
 Petite list used in FoFCou.
 Requested convergence on RMS density matrix=1.00D-08 within 128 cycles.
 Requested convergence on MAX density matrix=1.00D-06.
 Requested convergence on             energy=1.00D-06.
 No special actions if energy rises.
 Keep R1 ints in memory in canonical form, NReq=5269518.
 Integral accuracy reduced to 1.0D-05 until final iterations.
 Defaulting to unpruned grid for atomic number  53.
 Defaulting to unpruned grid for atomic number  53.
 Defaulting to unpruned grid for atomic number  53.
 Defaulting to unpruned grid for atomic number  53.
 Initial convergence to 1.0D-05 achieved.  Increase integral accuracy.
 SCF Done:  E(RB3LYP) =  -9590.12916335     A.U. after   14 cycles
             Convg  =    0.4385D-08             -V/T =  2.0019
 Calling FoFJK, ICntrl=      2127 FMM=F ISym2X=0 I1Cent= 0 IOpClX= 0 NMat=1 NMatS=1 NMatT=0.
 Defaulting to unpruned grid for atomic number  53.
 Defaulting to unpruned grid for atomic number  53.
 Defaulting to unpruned grid for atomic number  53.
 Defaulting to unpruned grid for atomic number  53.
 ***** Axes restored to original set *****
 -------------------------------------------------------------------
 Center     Atomic                   Forces (Hartrees/Bohr)
 Number     Number              X              Y              Z
 -------------------------------------------------------------------
      1        6          -0.008623711    0.001470976   -0.006901966
      2       53           0.001643434   -0.000066209   -0.000581664
      3        1           0.005712092    0.000078283    0.003639691
      4        9           0.000332129   -0.000388910    0.003106534
      5       35           0.000936056   -0.001094140    0.000737406
 -------------------------------------------------------------------
 Cartesian Forces:  Max     0.008623711 RMS     0.003517799

 GradGradGradGradGradGradGradGradGradGradGradGradGradGradGradGradGradGrad
 Berny optimization.
 Using GEDIIS/GDIIS optimizer.
 Internal  Forces:  Max     0.004060710 RMS     0.001969620
 Search for a local minimum.
 Step number   2 out of a maximum of   24
 All quantities printed in internal units (Hartrees-Bohrs-Radians)
 Mixed Optimization -- RFO/linear search
 Update second derivatives using D2CorX and points    1    2
 DE= -9.50D-03 DEPred=-1.29D-02 R= 7.39D-01
 SS=  1.41D+00  RLast= 3.15D-01 DXNew= 5.0454D-01 9.4590D-01
 Trust test= 7.39D-01 RLast= 3.15D-01 DXMaxT set to 5.05D-01
 The second derivative matrix:
                          R1        R2        R3        R4        A1
           R1           0.17347
           R2           0.00183   0.34494
           R3           0.01339   0.00161   0.53692
           R4           0.02039   0.00106   0.01057   0.17714
           A1           0.01063  -0.00115   0.00868   0.00645   0.15507
           A2          -0.00955   0.00050  -0.00681  -0.00623   0.00182
           A3           0.00304   0.00138  -0.00070   0.00321   0.00690
           A4          -0.00107   0.00019  -0.00102  -0.00059   0.00087
           A5          -0.01067  -0.00004  -0.00650  -0.00743  -0.00086
           A6          -0.00990   0.00029  -0.00664  -0.00663   0.00080
           D1           0.01269  -0.00035   0.00846   0.00852  -0.00092
           D2          -0.00098   0.00003  -0.00065  -0.00066   0.00006
           D3          -0.01501   0.00052  -0.01021  -0.00999   0.00159
           D4          -0.01403   0.00050  -0.00956  -0.00933   0.00153
                          A2        A3        A4        A5        A6
           A2           0.24996
           A3          -0.00456   0.24673
           A4          -0.00041  -0.00093   0.15986
           A5           0.00172  -0.00327  -0.00005   0.16298
           A6           0.00062  -0.00404  -0.00028   0.00218   0.25120
           D1          -0.00086   0.00511   0.00034  -0.00283  -0.00159
           D2           0.00007  -0.00039  -0.00002   0.00022   0.00013
           D3           0.00071  -0.00636  -0.00047   0.00317   0.00162
           D4           0.00063  -0.00598  -0.00045   0.00294   0.00150
                          D1        D2        D3        D4
           D1           0.02182
           D2          -0.00017   0.00231
           D3          -0.00217   0.00018   0.00445
           D4          -0.00200   0.00016   0.00198   0.00411
 ITU=  1  0
 Use linear search instead of GDIIS.
     Eigenvalues ---    0.05724   0.07088   0.10445   0.15491   0.19028
     Eigenvalues ---    0.22590   0.24235   0.34497   0.53827
 RFO step:  Lambda=-8.17659133D-04 EMin= 5.72418359D-02
 Quartic linear search produced a step of  0.02348.
 Iteration  1 RMS(Cart)=  0.02122751 RMS(Int)=  0.00061161
 Iteration  2 RMS(Cart)=  0.00047532 RMS(Int)=  0.00023683
 Iteration  3 RMS(Cart)=  0.00000005 RMS(Int)=  0.00023683
 Variable       Old X    -DE/DX   Delta X   Delta X   Delta X     New X
                                 (Linear)    (Quad)   (Total)
    R1        4.17568   0.00085   0.00564   0.00845   0.01408   4.18977
    R2        2.05753  -0.00139  -0.00017  -0.00418  -0.00434   2.05318
    R3        2.61718   0.00002   0.00116   0.00043   0.00158   2.61876
    R4        3.81367  -0.00116   0.00324  -0.00585  -0.00261   3.81105
    A1        1.92718  -0.00289  -0.00142  -0.04644  -0.04773   1.87946
    A2        1.91592  -0.00005   0.00019  -0.00524  -0.00494   1.91098
    A3        1.98374  -0.00079   0.00175  -0.00947  -0.00797   1.97577
    A4        1.90144   0.00309   0.00029   0.04757   0.04753   1.94898
    A5        1.82839   0.00140  -0.00077   0.01268   0.01144   1.83983
    A6        1.90415  -0.00051  -0.00007   0.00477   0.00435   1.90851
    D1       -2.11226   0.00165   0.00145   0.03051   0.03238  -2.07988
    D2        2.10520  -0.00307  -0.00122  -0.05403  -0.05524   2.04996
    D3       -2.14432   0.00099  -0.00132   0.00981   0.00868  -2.13565
    D4        2.03366   0.00406  -0.00011   0.06384   0.06392   2.09758
         Item               Value     Threshold  Converged?
 Maximum Force            0.004061     0.000450     NO 
 RMS     Force            0.001970     0.000300     NO 
 Maximum Displacement     0.054737     0.001800     NO 
 RMS     Displacement     0.021192     0.001200     NO 
 Predicted change in Energy=-4.117492D-04
 GradGradGradGradGradGradGradGradGradGradGradGradGradGradGradGradGradGrad

                          Input orientation:                          
 ---------------------------------------------------------------------
 Center     Atomic      Atomic             Coordinates (Angstroms)
 Number     Number       Type             X           Y           Z
 ---------------------------------------------------------------------
      1          6           0       -0.514875   -0.193383   -0.881226
      2         53           0        1.094794   -0.886508    0.476788
      3          1           0       -0.090524   -0.103932   -1.877419
      4          9           0       -1.565495   -1.096570   -0.851803
      5         35           0       -1.202500    1.646603   -0.424289
 ---------------------------------------------------------------------
                    Distance matrix (angstroms):
                    1          2          3          4          5
     1  C    0.000000
     2  I    2.217128   0.000000
     3  H    1.086496   2.749489   0.000000
     4  F    1.385790   2.981009   2.052500   0.000000
     5  Br   2.016723   3.536404   2.532282   2.799917   0.000000
 Stoichiometry    CHBrFI
 Framework group  C1[X(CHBrFI)]
 Deg. of freedom     9
 Full point group                 C1      NOp   1
 Largest Abelian subgroup         C1      NOp   1
 Largest concise Abelian subgroup C1      NOp   1
                         Standard orientation:                         
 ---------------------------------------------------------------------
 Center     Atomic      Atomic             Coordinates (Angstroms)
 Number     Number       Type             X           Y           Z
 ---------------------------------------------------------------------
      1          6           0       -0.448905    0.769784    0.444061
      2         53           0        1.495988   -0.188816   -0.018683
      3          1           0       -0.502806    0.903994    1.520888
      4          9           0       -0.539982    1.978594   -0.227428
      5         35           0       -2.035180   -0.380651   -0.032806
 ---------------------------------------------------------------------
 Rotational constants (GHZ):      4.8647359      0.8097394      0.7053365
 Standard basis: 3-21G (6D, 7F)
 There are    76 symmetry adapted basis functions of A   symmetry.
 Integral buffers will be    131072 words long.
 Raffenetti 2 integral format.
 Two-electron integral symmetry is turned on.
    76 basis functions,   177 primitive gaussians,    76 cartesian basis functions
    52 alpha electrons       52 beta electrons
       nuclear repulsion energy       596.1660595411 Hartrees.
 NAtoms=    5 NActive=    5 NUniq=    5 SFac= 1.00D+00 NAtFMM=   50 NAOKFM=F Big=F
 One-electron integrals computed using PRISM.
 NBasis=    76 RedAO= T  NBF=    76
 NBsUse=    76 1.00D-06 NBFU=    76
 Defaulting to unpruned grid for atomic number  53.
 Initial guess read from the read-write file.
 B after Tr=     0.000000    0.000000    0.000000
         Rot=    1.000000    0.000000    0.000000    0.000000 Ang=   0.00 deg.
 Initial guess orbital symmetries:
       Occupied  (A) (A) (A) (A) (A) (A) (A) (A) (A) (A) (A) (A)
                 (A) (A) (A) (A) (A) (A) (A) (A) (A) (A) (A) (A)
                 (A) (A) (A) (A) (A) (A) (A) (A) (A) (A) (A) (A)
                 (A) (A) (A) (A) (A) (A) (A) (A) (A) (A) (A) (A)
                 (A) (A) (A) (A)
       Virtual   (A) (A) (A) (A) (A) (A) (A) (A) (A) (A) (A) (A)
                 (A) (A) (A) (A) (A) (A) (A) (A) (A) (A) (A) (A)
 Harris functional with IExCor=  402 diagonalized for initial guess.
 ExpMin= 1.15D-01 ExpMax= 1.44D+04 ExpMxC= 1.44D+04 IAcc=1 IRadAn=         1 AccDes= 0.00D+00
 HarFok:  IExCor=  402 AccDes= 0.00D+00 IRadAn=         1 IDoV= 1
 ScaDFX=  1.000000  1.000000  1.000000  1.000000
 Defaulting to unpruned grid for atomic number  53.
 Defaulting to unpruned grid for atomic number  53.
 Defaulting to unpruned grid for atomic number  53.
 Defaulting to unpruned grid for atomic number  53.
 FoFCou: FMM=F IPFlag=           0 FMFlag=      100000 FMFlg1=           0
         NFxFlg=           0 DoJE=T BraDBF=F KetDBF=T FulRan=T
         Omega=  0.000000  0.000000  1.000000  0.000000  0.000000 ICntrl=     500 IOpCl=  0
         NMat0=    1 NMatS0=    1 NMatT0=    0 NMatD0=    1 NMtDS0=    0 NMtDT0=    0
         I1Cent=           4 NGrid=           0.
 Petite list used in FoFCou.
 Requested convergence on RMS density matrix=1.00D-08 within 128 cycles.
 Requested convergence on MAX density matrix=1.00D-06.
 Requested convergence on             energy=1.00D-06.
 No special actions if energy rises.
 Keep R1 ints in memory in canonical form, NReq=5269518.
 Integral accuracy reduced to 1.0D-05 until final iterations.
 Defaulting to unpruned grid for atomic number  53.
 Defaulting to unpruned grid for atomic number  53.
 Defaulting to unpruned grid for atomic number  53.
 Defaulting to unpruned grid for atomic number  53.
 Initial convergence to 1.0D-05 achieved.  Increase integral accuracy.
 SCF Done:  E(RB3LYP) =  -9590.12959636     A.U. after   11 cycles
             Convg  =    0.6573D-08             -V/T =  2.0019
 Calling FoFJK, ICntrl=      2127 FMM=F ISym2X=0 I1Cent= 0 IOpClX= 0 NMat=1 NMatS=1 NMatT=0.
 Defaulting to unpruned grid for atomic number  53.
 Defaulting to unpruned grid for atomic number  53.
 Defaulting to unpruned grid for atomic number  53.
 Defaulting to unpruned grid for atomic number  53.
 ***** Axes restored to original set *****
 -------------------------------------------------------------------
 Center     Atomic                   Forces (Hartrees/Bohr)
 Number     Number              X              Y              Z
 -------------------------------------------------------------------
      1        6          -0.005252141    0.001039692    0.000073740
      2       53           0.001293550   -0.000418078    0.000351814
      3        1           0.000391374   -0.001222084    0.000427525
      4        9           0.003065795    0.002205089   -0.000621580
      5       35           0.000501421   -0.001604619   -0.000231499
 -------------------------------------------------------------------
 Cartesian Forces:  Max     0.005252141 RMS     0.001825748

 GradGradGradGradGradGradGradGradGradGradGradGradGradGradGradGradGradGrad
 Berny optimization.
 Using GEDIIS/GDIIS optimizer.
 Internal  Forces:  Max     0.003776936 RMS     0.001256064
 Search for a local minimum.
 Step number   3 out of a maximum of   24
 All quantities printed in internal units (Hartrees-Bohrs-Radians)
 Mixed Optimization -- RFO/linear search
 Update second derivatives using D2CorX and points    1    2    3
 DE= -4.33D-04 DEPred=-4.12D-04 R= 1.05D+00
 SS=  1.41D+00  RLast= 1.15D-01 DXNew= 8.4853D-01 3.4549D-01
 Trust test= 1.05D+00 RLast= 1.15D-01 DXMaxT set to 5.05D-01
 The second derivative matrix:
                          R1        R2        R3        R4        A1
           R1           0.16649
           R2           0.00498   0.34398
           R3           0.01705  -0.00326   0.56780
           R4           0.02274  -0.00104   0.02146   0.18098
           A1           0.03140  -0.01058   0.00531   0.00295   0.09824
           A2          -0.00510  -0.00169  -0.00608  -0.00646  -0.01013
           A3           0.00935  -0.00178   0.00207   0.00364  -0.00908
           A4          -0.02049   0.00802   0.01110   0.00588   0.05554
           A5          -0.01580   0.00256  -0.00874  -0.00774   0.01230
           A6          -0.01397   0.00294  -0.01366  -0.00875   0.01037
           D1           0.01072   0.00023   0.01197   0.01003   0.00521
           D2          -0.00487   0.00393  -0.01988  -0.00715   0.00704
           D3          -0.01228  -0.00163  -0.00252  -0.00756  -0.00455
           D4          -0.00741  -0.00555   0.01736  -0.00041  -0.01160
                          A2        A3        A4        A5        A6
           A2           0.24751
           A3          -0.00776   0.24275
           A4           0.01150   0.01545   0.10984
           A5           0.00435   0.00004  -0.01355   0.16024
           A6           0.00228  -0.00225  -0.01165   0.00070   0.25144
           D1           0.00057   0.00722  -0.00467  -0.00456  -0.00339
           D2           0.00062  -0.00069  -0.01240   0.00048   0.00376
           D3          -0.00020  -0.00719   0.00779   0.00383   0.00069
           D4          -0.00083  -0.00650   0.02019   0.00335  -0.00307
                          D1        D2        D3        D4
           D1           0.02148
           D2          -0.00289   0.01396
           D3          -0.00071  -0.00423   0.00593
           D4           0.00219  -0.01588   0.00785   0.02603
 ITU=  1  1  0
 Use linear search instead of GDIIS.
     Eigenvalues ---    0.04497   0.07644   0.10911   0.15540   0.18995
     Eigenvalues ---    0.22473   0.24153   0.34416   0.57151
 RFO step:  Lambda=-1.01658040D-04 EMin= 4.49728664D-02
 Quartic linear search produced a step of  0.08060.
 Iteration  1 RMS(Cart)=  0.00643623 RMS(Int)=  0.00005447
 Iteration  2 RMS(Cart)=  0.00004252 RMS(Int)=  0.00003146
 Iteration  3 RMS(Cart)=  0.00000000 RMS(Int)=  0.00003146
 Variable       Old X    -DE/DX   Delta X   Delta X   Delta X     New X
                                 (Linear)    (Quad)   (Total)
    R1        4.18977   0.00128   0.00114   0.01117   0.01231   4.20207
    R2        2.05318  -0.00034  -0.00035  -0.00127  -0.00162   2.05157
    R3        2.61876  -0.00378   0.00013  -0.00740  -0.00727   2.61149
    R4        3.81105  -0.00169  -0.00021  -0.01069  -0.01090   3.80015
    A1        1.87946  -0.00063  -0.00385  -0.01188  -0.01571   1.86374
    A2        1.91098   0.00015  -0.00040   0.00182   0.00142   1.91240
    A3        1.97577   0.00002  -0.00064   0.00252   0.00186   1.97763
    A4        1.94898  -0.00067   0.00383  -0.00441  -0.00066   1.94832
    A5        1.83983   0.00097   0.00092   0.00844   0.00931   1.84914
    A6        1.90851   0.00015   0.00035   0.00328   0.00358   1.91209
    D1       -2.07988   0.00111   0.00261   0.01637   0.01901  -2.06087
    D2        2.04996  -0.00015  -0.00445  -0.00776  -0.01223   2.03773
    D3       -2.13565  -0.00031   0.00070  -0.00647  -0.00575  -2.14140
    D4        2.09758  -0.00016   0.00515   0.00128   0.00647   2.10405
         Item               Value     Threshold  Converged?
 Maximum Force            0.003777     0.000450     NO 
 RMS     Force            0.001256     0.000300     NO 
 Maximum Displacement     0.010694     0.001800     NO 
 RMS     Displacement     0.006454     0.001200     NO 
 Predicted change in Energy=-5.284662D-05
 GradGradGradGradGradGradGradGradGradGradGradGradGradGradGradGradGradGrad

                          Input orientation:                          
 ---------------------------------------------------------------------
 Center     Atomic      Atomic             Coordinates (Angstroms)
 Number     Number       Type             X           Y           Z
 ---------------------------------------------------------------------
      1          6           0       -0.520535   -0.190089   -0.880530
      2         53           0        1.099253   -0.886972    0.474175
      3          1           0       -0.086506   -0.108901   -1.872319
      4          9           0       -1.566340   -1.093074   -0.854498
      5         35           0       -1.204473    1.645246   -0.424777
 ---------------------------------------------------------------------
                    Distance matrix (angstroms):
                    1          2          3          4          5
     1  C    0.000000
     2  I    2.223642   0.000000
     3  H    1.085641   2.741798   0.000000
     4  F    1.381943   2.985504   2.048040   0.000000
     5  Br   2.010955   3.539407   2.534218   2.795354   0.000000
 Stoichiometry    CHBrFI
 Framework group  C1[X(CHBrFI)]
 Deg. of freedom     9
 Full point group                 C1      NOp   1
 Largest Abelian subgroup         C1      NOp   1
 Largest concise Abelian subgroup C1      NOp   1
                         Standard orientation:                         
 ---------------------------------------------------------------------
 Center     Atomic      Atomic             Coordinates (Angstroms)
 Number     Number       Type             X           Y           Z
 ---------------------------------------------------------------------
      1          6           0       -0.455843    0.769197    0.439958
      2         53           0        1.498300   -0.187694   -0.018594
      3          1           0       -0.494900    0.901961    1.516743
      4          9           0       -0.547603    1.976691   -0.225854
      5         35           0       -2.035758   -0.381703   -0.032524
 ---------------------------------------------------------------------
 Rotational constants (GHZ):      4.8749958      0.8081665      0.7042178
 Standard basis: 3-21G (6D, 7F)
 There are    76 symmetry adapted basis functions of A   symmetry.
 Integral buffers will be    131072 words long.
 Raffenetti 2 integral format.
 Two-electron integral symmetry is turned on.
    76 basis functions,   177 primitive gaussians,    76 cartesian basis functions
    52 alpha electrons       52 beta electrons
       nuclear repulsion energy       595.9237480849 Hartrees.
 NAtoms=    5 NActive=    5 NUniq=    5 SFac= 1.00D+00 NAtFMM=   50 NAOKFM=F Big=F
 One-electron integrals computed using PRISM.
 NBasis=    76 RedAO= T  NBF=    76
 NBsUse=    76 1.00D-06 NBFU=    76
 Defaulting to unpruned grid for atomic number  53.
 Initial guess read from the read-write file.
 B after Tr=     0.000000    0.000000    0.000000
         Rot=    1.000000    0.000000    0.000000    0.000000 Ang=   0.00 deg.
 Initial guess orbital symmetries:
       Occupied  (A) (A) (A) (A) (A) (A) (A) (A) (A) (A) (A) (A)
                 (A) (A) (A) (A) (A) (A) (A) (A) (A) (A) (A) (A)
                 (A) (A) (A) (A) (A) (A) (A) (A) (A) (A) (A) (A)
                 (A) (A) (A) (A) (A) (A) (A) (A) (A) (A) (A) (A)
                 (A) (A) (A) (A)
       Virtual   (A) (A) (A) (A) (A) (A) (A) (A) (A) (A) (A) (A)
                 (A) (A) (A) (A) (A) (A) (A) (A) (A) (A) (A) (A)
 Requested convergence on RMS density matrix=1.00D-08 within 128 cycles.
 Requested convergence on MAX density matrix=1.00D-06.
 Requested convergence on             energy=1.00D-06.
 No special actions if energy rises.
 Keep R1 ints in memory in canonical form, NReq=5269518.
 Defaulting to unpruned grid for atomic number  53.
 Defaulting to unpruned grid for atomic number  53.
 Defaulting to unpruned grid for atomic number  53.
 Defaulting to unpruned grid for atomic number  53.
 SCF Done:  E(RB3LYP) =  -9590.12966508     A.U. after    9 cycles
             Convg  =    0.3935D-08             -V/T =  2.0019
 Calling FoFJK, ICntrl=      2127 FMM=F ISym2X=0 I1Cent= 0 IOpClX= 0 NMat=1 NMatS=1 NMatT=0.
 Defaulting to unpruned grid for atomic number  53.
 Defaulting to unpruned grid for atomic number  53.
 Defaulting to unpruned grid for atomic number  53.
 Defaulting to unpruned grid for atomic number  53.
 ***** Axes restored to original set *****
 -------------------------------------------------------------------
 Center     Atomic                   Forces (Hartrees/Bohr)
 Number     Number              X              Y              Z
 -------------------------------------------------------------------
      1        6          -0.001995018    0.000538174    0.000259695
      2       53           0.000551234   -0.000162636    0.000353104
      3        1           0.000055575   -0.000344409   -0.000308152
      4        9           0.001137318    0.000729817   -0.000210589
      5       35           0.000250891   -0.000760945   -0.000094057
 -------------------------------------------------------------------
 Cartesian Forces:  Max     0.001995018 RMS     0.000708526

 GradGradGradGradGradGradGradGradGradGradGradGradGradGradGradGradGradGrad
 Berny optimization.
 Using GEDIIS/GDIIS optimizer.
 Internal  Forces:  Max     0.001343680 RMS     0.000485679
 Search for a local minimum.
 Step number   4 out of a maximum of   24
 All quantities printed in internal units (Hartrees-Bohrs-Radians)
 Mixed Optimization -- En-DIIS/RFO-DIIS
 Update second derivatives using D2CorX and points    1    2    3    4
 DE= -6.87D-05 DEPred=-5.28D-05 R= 1.30D+00
 SS=  1.41D+00  RLast= 3.55D-02 DXNew= 8.4853D-01 1.0665D-01
 Trust test= 1.30D+00 RLast= 3.55D-02 DXMaxT set to 5.05D-01
 The second derivative matrix:
                          R1        R2        R3        R4        A1
           R1           0.15612
           R2           0.00424   0.34906
           R3           0.03676   0.00239   0.51455
           R4           0.03384  -0.00014  -0.00861   0.16539
           A1           0.03024  -0.00854  -0.02290  -0.01576   0.08971
           A2          -0.01582  -0.00044   0.00382  -0.00357  -0.00439
           A3          -0.00615   0.00026   0.01357   0.00652  -0.00659
           A4           0.00489   0.00374  -0.00812   0.00212   0.04451
           A5          -0.02281   0.00100   0.01108   0.00330   0.02247
           A6          -0.01822   0.00642   0.00936   0.00269   0.01974
           D1           0.01421  -0.00734  -0.00249   0.00564  -0.00131
           D2           0.00675   0.00615  -0.01474  -0.00219   0.00626
           D3          -0.02101   0.00112   0.00479  -0.00661   0.00096
           D4          -0.02777  -0.00503   0.01954  -0.00442  -0.00530
                          A2        A3        A4        A5        A6
           A2           0.24524
           A3          -0.01338   0.23081
           A4           0.01628   0.02878   0.09954
           A5           0.00080  -0.00397  -0.00678   0.15292
           A6           0.00002  -0.00327  -0.00906  -0.00724   0.24821
           D1          -0.00058   0.00502   0.00062  -0.00004  -0.00654
           D2           0.00215   0.00659  -0.01760  -0.00100   0.00546
           D3          -0.00051  -0.00987   0.00770   0.00135   0.00050
           D4          -0.00266  -0.01645   0.02530   0.00234  -0.00496
                          D1        D2        D3        D4
           D1           0.03215
           D2          -0.00561   0.01412
           D3          -0.00456  -0.00349   0.00760
           D4           0.00105  -0.01531   0.00879   0.02640
 ITU=  1  1  1  0
 Use linear search instead of GDIIS.
     Eigenvalues ---    0.04172   0.07563   0.10466   0.13599   0.18973
     Eigenvalues ---    0.22516   0.24181   0.34917   0.51963
 RFO step:  Lambda=-4.51487137D-06 EMin= 4.17175609D-02
 Quartic linear search produced a step of  0.55688.
 Iteration  1 RMS(Cart)=  0.00313339 RMS(Int)=  0.00001873
 Iteration  2 RMS(Cart)=  0.00001175 RMS(Int)=  0.00001537
 Iteration  3 RMS(Cart)=  0.00000000 RMS(Int)=  0.00001537
 Variable       Old X    -DE/DX   Delta X   Delta X   Delta X     New X
                                 (Linear)    (Quad)   (Total)
    R1        4.20207   0.00067   0.00685   0.00280   0.00965   4.21173
    R2        2.05157   0.00028  -0.00090   0.00170   0.00080   2.05236
    R3        2.61149  -0.00134  -0.00405  -0.00016  -0.00420   2.60729
    R4        3.80015  -0.00080  -0.00607  -0.00242  -0.00849   3.79166
    A1        1.86374  -0.00004  -0.00875   0.00191  -0.00684   1.85691
    A2        1.91240  -0.00001   0.00079  -0.00083  -0.00005   1.91235
    A3        1.97763  -0.00015   0.00104  -0.00119  -0.00015   1.97748
    A4        1.94832  -0.00032  -0.00036  -0.00059  -0.00099   1.94733
    A5        1.84914   0.00031   0.00519   0.00023   0.00540   1.85454
    A6        1.91209   0.00019   0.00199   0.00050   0.00248   1.91456
    D1       -2.06087   0.00025   0.01058  -0.00148   0.00909  -2.05178
    D2        2.03773   0.00007  -0.00681   0.00182  -0.00500   2.03273
    D3       -2.14140  -0.00003  -0.00320   0.00153  -0.00167  -2.14307
    D4        2.10405  -0.00010   0.00360  -0.00029   0.00334   2.10739
         Item               Value     Threshold  Converged?
 Maximum Force            0.001344     0.000450     NO 
 RMS     Force            0.000486     0.000300     NO 
 Maximum Displacement     0.006229     0.001800     NO 
 RMS     Displacement     0.003137     0.001200     NO 
 Predicted change in Energy=-1.007866D-05
 GradGradGradGradGradGradGradGradGradGradGradGradGradGradGradGradGradGrad

                          Input orientation:                          
 ---------------------------------------------------------------------
 Center     Atomic      Atomic             Coordinates (Angstroms)
 Number     Number       Type             X           Y           Z
 ---------------------------------------------------------------------
      1          6           0       -0.523831   -0.187927   -0.880656
      2         53           0        1.101739   -0.886959    0.474410
      3          1           0       -0.085323   -0.111285   -1.871299
      4          9           0       -1.566512   -1.091158   -0.855889
      5         35           0       -1.204674    1.643540   -0.424516
 ---------------------------------------------------------------------
                    Distance matrix (angstroms):
                    1          2          3          4          5
     1  C    0.000000
     2  I    2.228750   0.000000
     3  H    1.086065   2.741011   0.000000
     4  F    1.379719   2.988471   2.045759   0.000000
     5  Br   2.006460   3.539920   2.534864   2.792057   0.000000
 Stoichiometry    CHBrFI
 Framework group  C1[X(CHBrFI)]
 Deg. of freedom     9
 Full point group                 C1      NOp   1
 Largest Abelian subgroup         C1      NOp   1
 Largest concise Abelian subgroup C1      NOp   1
                         Standard orientation:                         
 ---------------------------------------------------------------------
 Center     Atomic      Atomic             Coordinates (Angstroms)
 Number     Number       Type             X           Y           Z
 ---------------------------------------------------------------------
      1          6           0       -0.461278    0.769454    0.438218
      2         53           0        1.499364   -0.186901   -0.018504
      3          1           0       -0.493594    0.903016    1.515555
      4          9           0       -0.552910    1.975571   -0.225490
      5         35           0       -2.035110   -0.382689   -0.032421
 ---------------------------------------------------------------------
 Rotational constants (GHZ):      4.8788243      0.8077300      0.7039152
 Standard basis: 3-21G (6D, 7F)
 There are    76 symmetry adapted basis functions of A   symmetry.
 Integral buffers will be    131072 words long.
 Raffenetti 2 integral format.
 Two-electron integral symmetry is turned on.
    76 basis functions,   177 primitive gaussians,    76 cartesian basis functions
    52 alpha electrons       52 beta electrons
       nuclear repulsion energy       595.8562318477 Hartrees.
 NAtoms=    5 NActive=    5 NUniq=    5 SFac= 1.00D+00 NAtFMM=   50 NAOKFM=F Big=F
 One-electron integrals computed using PRISM.
 NBasis=    76 RedAO= T  NBF=    76
 NBsUse=    76 1.00D-06 NBFU=    76
 Defaulting to unpruned grid for atomic number  53.
 Initial guess read from the read-write file.
 B after Tr=     0.000000    0.000000    0.000000
         Rot=    1.000000    0.000000    0.000000    0.000000 Ang=   0.00 deg.
 Initial guess orbital symmetries:
       Occupied  (A) (A) (A) (A) (A) (A) (A) (A) (A) (A) (A) (A)
                 (A) (A) (A) (A) (A) (A) (A) (A) (A) (A) (A) (A)
                 (A) (A) (A) (A) (A) (A) (A) (A) (A) (A) (A) (A)
                 (A) (A) (A) (A) (A) (A) (A) (A) (A) (A) (A) (A)
                 (A) (A) (A) (A)
       Virtual   (A) (A) (A) (A) (A) (A) (A) (A) (A) (A) (A) (A)
                 (A) (A) (A) (A) (A) (A) (A) (A) (A) (A) (A) (A)
 Requested convergence on RMS density matrix=1.00D-08 within 128 cycles.
 Requested convergence on MAX density matrix=1.00D-06.
 Requested convergence on             energy=1.00D-06.
 No special actions if energy rises.
 Keep R1 ints in memory in canonical form, NReq=5269518.
 Defaulting to unpruned grid for atomic number  53.
 Defaulting to unpruned grid for atomic number  53.
 Defaulting to unpruned grid for atomic number  53.
 Defaulting to unpruned grid for atomic number  53.
 SCF Done:  E(RB3LYP) =  -9590.12967479     A.U. after    9 cycles
             Convg  =    0.2012D-08             -V/T =  2.0019
 Calling FoFJK, ICntrl=      2127 FMM=F ISym2X=0 I1Cent= 0 IOpClX= 0 NMat=1 NMatS=1 NMatT=0.
 Defaulting to unpruned grid for atomic number  53.
 Defaulting to unpruned grid for atomic number  53.
 Defaulting to unpruned grid for atomic number  53.
 Defaulting to unpruned grid for atomic number  53.
 ***** Axes restored to original set *****
 -------------------------------------------------------------------
 Center     Atomic                   Forces (Hartrees/Bohr)
 Number     Number              X              Y              Z
 -------------------------------------------------------------------
      1        6           0.000242624    0.000057995   -0.000035793
      2       53           0.000008231    0.000031223    0.000094578
      3        1          -0.000180804    0.000043731   -0.000101008
      4        9          -0.000031481   -0.000161923    0.000016684
      5       35          -0.000038570    0.000028974    0.000025540
 -------------------------------------------------------------------
 Cartesian Forces:  Max     0.000242624 RMS     0.000099590

 GradGradGradGradGradGradGradGradGradGradGradGradGradGradGradGradGradGrad
 Berny optimization.
 Using GEDIIS/GDIIS optimizer.
 Internal  Forces:  Max     0.000139092 RMS     0.000083565
 Search for a local minimum.
 Step number   5 out of a maximum of   24
 All quantities printed in internal units (Hartrees-Bohrs-Radians)
 Mixed Optimization -- En-DIIS/RFO-DIIS
 Swaping is turned off.
 Update second derivatives using D2CorX and points    1    2    3    4    5
 DE= -9.71D-06 DEPred=-1.01D-05 R= 9.63D-01
 SS=  1.41D+00  RLast= 1.97D-02 DXNew= 8.4853D-01 5.9123D-02
 Trust test= 9.63D-01 RLast= 1.97D-02 DXMaxT set to 5.05D-01
 The second derivative matrix:
                          R1        R2        R3        R4        A1
           R1           0.15350
           R2           0.00510   0.34759
           R3           0.04107   0.00722   0.52420
           R4           0.03715   0.00287  -0.00809   0.16337
           A1           0.02419  -0.00980  -0.01760  -0.01346   0.09356
           A2          -0.00864  -0.00058  -0.00376  -0.00746  -0.00709
           A3           0.00186   0.00051   0.01032   0.00475  -0.01016
           A4           0.00271   0.00736  -0.01420  -0.00257   0.04643
           A5          -0.02422   0.00001   0.01212   0.00495   0.02101
           A6          -0.01599   0.00447   0.01856   0.00848   0.01899
           D1           0.00541  -0.00568  -0.01059   0.00149  -0.00115
           D2           0.00806   0.00449  -0.01234  -0.00015   0.00717
           D3          -0.01621   0.00103   0.00585  -0.00641  -0.00006
           D4          -0.02427  -0.00346   0.01819  -0.00626  -0.00723
                          A2        A3        A4        A5        A6
           A2           0.24475
           A3          -0.01387   0.23160
           A4           0.01748   0.02973   0.09177
           A5           0.00325  -0.00205  -0.00533   0.15187
           A6          -0.00101  -0.00285  -0.00418  -0.00928   0.24551
           D1           0.00451   0.00748  -0.00542   0.00035  -0.00427
           D2          -0.00014   0.00470  -0.01450  -0.00164   0.00343
           D3          -0.00178  -0.01022   0.00942   0.00190  -0.00005
           D4          -0.00165  -0.01492   0.02392   0.00355  -0.00348
                          D1        D2        D3        D4
           D1           0.02611
           D2          -0.00195   0.01347
           D3          -0.00224  -0.00546   0.00717
           D4          -0.00029  -0.01662   0.01033   0.02925
 ITU=  1  1  1  1  0
     Eigenvalues ---    0.04057   0.07544   0.10096   0.13081   0.19036
     Eigenvalues ---    0.22695   0.23887   0.34754   0.52995
 En-DIIS/RFO-DIIS IScMMF=        0 using points:     5    4
 RFO step:  Lambda=-2.84841717D-07.
 DidBck=F Rises=F RFO-DIIS coefs:    0.89810    0.10190
 Iteration  1 RMS(Cart)=  0.00100060 RMS(Int)=  0.00000099
 Iteration  2 RMS(Cart)=  0.00000071 RMS(Int)=  0.00000055
 Variable       Old X    -DE/DX   Delta X   Delta X   Delta X     New X
                                  (DIIS)     (GDIIS)  (Total)
    R1        4.21173   0.00005  -0.00098   0.00046  -0.00052   4.21121
    R2        2.05236   0.00002  -0.00008   0.00015   0.00006   2.05243
    R3        2.60729   0.00013   0.00043  -0.00002   0.00041   2.60770
    R4        3.79166   0.00005   0.00087  -0.00024   0.00063   3.79229
    A1        1.85691   0.00014   0.00070   0.00164   0.00233   1.85924
    A2        1.91235  -0.00008   0.00000  -0.00056  -0.00055   1.91180
    A3        1.97748  -0.00008   0.00002  -0.00043  -0.00042   1.97706
    A4        1.94733  -0.00007   0.00010  -0.00084  -0.00074   1.94659
    A5        1.85454  -0.00004  -0.00055   0.00002  -0.00053   1.85401
    A6        1.91456   0.00013  -0.00025   0.00020  -0.00005   1.91451
    D1       -2.05178  -0.00008  -0.00093  -0.00116  -0.00208  -2.05386
    D2        2.03273   0.00010   0.00051   0.00177   0.00228   2.03501
    D3       -2.14307   0.00006   0.00017   0.00088   0.00105  -2.14202
    D4        2.10739  -0.00004  -0.00034  -0.00088  -0.00123   2.10616
         Item               Value     Threshold  Converged?
 Maximum Force            0.000139     0.000450     YES
 RMS     Force            0.000084     0.000300     YES
 Maximum Displacement     0.001930     0.001800     NO 
 RMS     Displacement     0.001000     0.001200     YES
 Predicted change in Energy=-5.143563D-07
 GradGradGradGradGradGradGradGradGradGradGradGradGradGradGradGradGradGrad

                          Input orientation:                          
 ---------------------------------------------------------------------
 Center     Atomic      Atomic             Coordinates (Angstroms)
 Number     Number       Type             X           Y           Z
 ---------------------------------------------------------------------
      1          6           0       -0.523224   -0.188023   -0.880866
      2         53           0        1.101224   -0.886912    0.475165
      3          1           0       -0.086345   -0.110968   -1.872233
      4          9           0       -1.565976   -1.091497   -0.855764
      5         35           0       -1.204280    1.643611   -0.424251
 ---------------------------------------------------------------------
                    Distance matrix (angstroms):
                    1          2          3          4          5
     1  C    0.000000
     2  I    2.228474   0.000000
     3  H    1.086099   2.742752   0.000000
     4  F    1.379937   2.987840   2.045472   0.000000
     5  Br   2.006793   3.539470   2.534755   2.792462   0.000000
 Stoichiometry    CHBrFI
 Framework group  C1[X(CHBrFI)]
 Deg. of freedom     9
 Full point group                 C1      NOp   1
 Largest Abelian subgroup         C1      NOp   1
 Largest concise Abelian subgroup C1      NOp   1
                         Standard orientation:                         
 ---------------------------------------------------------------------
 Center     Atomic      Atomic             Coordinates (Angstroms)
 Number     Number       Type             X           Y           Z
 ---------------------------------------------------------------------
      1          6           0       -0.460954    0.769684    0.438710
      2         53           0        1.499094   -0.187018   -0.018492
      3          1           0       -0.495143    0.904524    1.515863
      4          9           0       -0.552022    1.975650   -0.225805
      5         35           0       -2.034940   -0.382615   -0.032452
 ---------------------------------------------------------------------
 Rotational constants (GHZ):      4.8777519      0.8079487      0.7040761
 Standard basis: 3-21G (6D, 7F)
 There are    76 symmetry adapted basis functions of A   symmetry.
 Integral buffers will be    131072 words long.
 Raffenetti 2 integral format.
 Two-electron integral symmetry is turned on.
    76 basis functions,   177 primitive gaussians,    76 cartesian basis functions
    52 alpha electrons       52 beta electrons
       nuclear repulsion energy       595.8915983649 Hartrees.
 NAtoms=    5 NActive=    5 NUniq=    5 SFac= 1.00D+00 NAtFMM=   50 NAOKFM=F Big=F
 One-electron integrals computed using PRISM.
 NBasis=    76 RedAO= T  NBF=    76
 NBsUse=    76 1.00D-06 NBFU=    76
 Defaulting to unpruned grid for atomic number  53.
 Initial guess read from the read-write file.
 B after Tr=     0.000000    0.000000    0.000000
         Rot=    1.000000    0.000000    0.000000    0.000000 Ang=   0.00 deg.
 Initial guess orbital symmetries:
       Occupied  (A) (A) (A) (A) (A) (A) (A) (A) (A) (A) (A) (A)
                 (A) (A) (A) (A) (A) (A) (A) (A) (A) (A) (A) (A)
                 (A) (A) (A) (A) (A) (A) (A) (A) (A) (A) (A) (A)
                 (A) (A) (A) (A) (A) (A) (A) (A) (A) (A) (A) (A)
                 (A) (A) (A) (A)
       Virtual   (A) (A) (A) (A) (A) (A) (A) (A) (A) (A) (A) (A)
                 (A) (A) (A) (A) (A) (A) (A) (A) (A) (A) (A) (A)
 Requested convergence on RMS density matrix=1.00D-08 within 128 cycles.
 Requested convergence on MAX density matrix=1.00D-06.
 Requested convergence on             energy=1.00D-06.
 No special actions if energy rises.
 Keep R1 ints in memory in canonical form, NReq=5269518.
 Defaulting to unpruned grid for atomic number  53.
 Defaulting to unpruned grid for atomic number  53.
 Defaulting to unpruned grid for atomic number  53.
 Defaulting to unpruned grid for atomic number  53.
 SCF Done:  E(RB3LYP) =  -9590.12967553     A.U. after    8 cycles
             Convg  =    0.2179D-08             -V/T =  2.0019
 Calling FoFJK, ICntrl=      2127 FMM=F ISym2X=0 I1Cent= 0 IOpClX= 0 NMat=1 NMatS=1 NMatT=0.
 Defaulting to unpruned grid for atomic number  53.
 Defaulting to unpruned grid for atomic number  53.
 Defaulting to unpruned grid for atomic number  53.
 Defaulting to unpruned grid for atomic number  53.
 ***** Axes restored to original set *****
 -------------------------------------------------------------------
 Center     Atomic                   Forces (Hartrees/Bohr)
 Number     Number              X              Y              Z
 -------------------------------------------------------------------
      1        6          -0.000002925    0.000044318   -0.000028756
      2       53           0.000055379    0.000038173    0.000017381
      3        1          -0.000031643    0.000014844   -0.000017468
      4        9           0.000013516   -0.000084695    0.000022741
      5       35          -0.000034327   -0.000012640    0.000006102
 -------------------------------------------------------------------
 Cartesian Forces:  Max     0.000084695 RMS     0.000035025

 GradGradGradGradGradGradGradGradGradGradGradGradGradGradGradGradGradGrad
 Berny optimization.
 Using GEDIIS/GDIIS optimizer.
 Internal  Forces:  Max     0.000052717 RMS     0.000024667
 Search for a local minimum.
 Step number   6 out of a maximum of   24
 All quantities printed in internal units (Hartrees-Bohrs-Radians)
 Mixed Optimization -- En-DIIS/RFO-DIIS
 Swaping is turned off.
 Update second derivatives using D2CorX and points    1    2    3    4    5
                                                      6
 DE= -7.44D-07 DEPred=-5.14D-07 R= 1.45D+00
 Trust test= 1.45D+00 RLast= 4.44D-03 DXMaxT set to 5.05D-01
 The second derivative matrix:
                          R1        R2        R3        R4        A1
           R1           0.14860
           R2           0.00252   0.34758
           R3           0.03852   0.00458   0.52555
           R4           0.03691   0.00211  -0.00711   0.16361
           A1           0.01707  -0.01274  -0.02543  -0.01304   0.07609
           A2          -0.00021   0.00483   0.00341  -0.00822   0.01822
           A3           0.00589   0.00353   0.01462   0.00305   0.00647
           A4           0.00526   0.00645  -0.01136  -0.00138   0.04434
           A5          -0.02482  -0.00039   0.01181   0.00481   0.01862
           A6          -0.02003   0.00404   0.01530   0.00781   0.01362
           D1           0.00964  -0.00700  -0.00631   0.00420   0.00068
           D2           0.00649   0.00519  -0.01544  -0.00017   0.00735
           D3          -0.01447   0.00372   0.00762  -0.00711   0.00861
           D4          -0.02096  -0.00148   0.02305  -0.00694   0.00126
                          A2        A3        A4        A5        A6
           A2           0.21729
           A3          -0.03440   0.21576
           A4           0.01411   0.03048   0.09478
           A5           0.00458  -0.00041  -0.00437   0.15216
           A6           0.00974   0.00234  -0.00636  -0.01044   0.24525
           D1          -0.00274   0.00573  -0.00249   0.00089  -0.00550
           D2           0.00688   0.00707  -0.01918  -0.00339   0.00557
           D3          -0.00694  -0.01629   0.00518   0.00158   0.00593
           D4          -0.01382  -0.02336   0.02436   0.00497   0.00036
                          D1        D2        D3        D4
           D1           0.02830
           D2          -0.00500   0.01924
           D3          -0.00736   0.00021   0.00994
           D4          -0.00236  -0.01673   0.00743   0.02646
 ITU=  0  1  1  1  1  0
     Eigenvalues ---    0.04152   0.07400   0.10043   0.12704   0.18870
     Eigenvalues ---    0.21302   0.23363   0.34771   0.53100
 En-DIIS/RFO-DIIS IScMMF=        0 using points:     6    5    4
 RFO step:  Lambda=-1.87136786D-08.
 DidBck=F Rises=F RFO-DIIS coefs:    1.18766   -0.17055   -0.01711
 Iteration  1 RMS(Cart)=  0.00020753 RMS(Int)=  0.00000009
 Iteration  2 RMS(Cart)=  0.00000002 RMS(Int)=  0.00000009
 Variable       Old X    -DE/DX   Delta X   Delta X   Delta X     New X
                                  (DIIS)     (GDIIS)  (Total)
    R1        4.21121   0.00004   0.00007   0.00019   0.00026   4.21147
    R2        2.05243   0.00001   0.00003  -0.00001   0.00002   2.05245
    R3        2.60770   0.00004   0.00001   0.00007   0.00008   2.60778
    R4        3.79229   0.00000  -0.00003   0.00001  -0.00002   3.79227
    A1        1.85924   0.00002   0.00032  -0.00005   0.00027   1.85951
    A2        1.91180  -0.00003  -0.00010  -0.00010  -0.00021   1.91159
    A3        1.97706  -0.00002  -0.00008  -0.00007  -0.00015   1.97691
    A4        1.94659  -0.00001  -0.00016   0.00008  -0.00008   1.94651
    A5        1.85401  -0.00002  -0.00001  -0.00005  -0.00005   1.85396
    A6        1.91451   0.00005   0.00003   0.00019   0.00022   1.91473
    D1       -2.05386   0.00000  -0.00024   0.00008  -0.00015  -2.05401
    D2        2.03501   0.00001   0.00034  -0.00013   0.00021   2.03522
    D3       -2.14202   0.00001   0.00017   0.00004   0.00021  -2.14180
    D4        2.10616   0.00000  -0.00017   0.00017   0.00000   2.10616
         Item               Value     Threshold  Converged?
 Maximum Force            0.000053     0.000450     YES
 RMS     Force            0.000025     0.000300     YES
 Maximum Displacement     0.000343     0.001800     YES
 RMS     Displacement     0.000208     0.001200     YES
 Predicted change in Energy=-2.273956D-08
 Optimization completed.
    -- Stationary point found.
                           ----------------------------
                           !   Optimized Parameters   !
                           ! (Angstroms and Degrees)  !
 --------------------------                            --------------------------
 ! Name  Definition              Value          Derivative Info.                !
 --------------------------------------------------------------------------------
 ! R1    R(1,2)                  2.2285         -DE/DX =    0.0                 !
 ! R2    R(1,3)                  1.0861         -DE/DX =    0.0                 !
 ! R3    R(1,4)                  1.3799         -DE/DX =    0.0                 !
 ! R4    R(1,5)                  2.0068         -DE/DX =    0.0                 !
 ! A1    A(2,1,3)              106.5266         -DE/DX =    0.0                 !
 ! A2    A(2,1,4)              109.538          -DE/DX =    0.0                 !
 ! A3    A(2,1,5)              113.277          -DE/DX =    0.0                 !
 ! A4    A(3,1,4)              111.5314         -DE/DX =    0.0                 !
 ! A5    A(3,1,5)              106.2272         -DE/DX =    0.0                 !
 ! A6    A(4,1,5)              109.6934         -DE/DX =    0.0001              !
 ! D1    D(2,1,4,3)           -117.6775         -DE/DX =    0.0                 !
 ! D2    D(2,1,5,3)            116.5973         -DE/DX =    0.0                 !
 ! D3    D(2,1,5,4)           -122.7284         -DE/DX =    0.0                 !
 ! D4    D(3,1,5,4)            120.6742         -DE/DX =    0.0                 !
 --------------------------------------------------------------------------------
 GradGradGradGradGradGradGradGradGradGradGradGradGradGradGradGradGradGrad

                          Input orientation:                          
 ---------------------------------------------------------------------
 Center     Atomic      Atomic             Coordinates (Angstroms)
 Number     Number       Type             X           Y           Z
 ---------------------------------------------------------------------
      1          6           0       -0.523224   -0.188023   -0.880866
      2         53           0        1.101224   -0.886912    0.475165
      3          1           0       -0.086345   -0.110968   -1.872233
      4          9           0       -1.565976   -1.091497   -0.855764
      5         35           0       -1.204280    1.643611   -0.424251
 ---------------------------------------------------------------------
                    Distance matrix (angstroms):
                    1          2          3          4          5
     1  C    0.000000
     2  I    2.228474   0.000000
     3  H    1.086099   2.742752   0.000000
     4  F    1.379937   2.987840   2.045472   0.000000
     5  Br   2.006793   3.539470   2.534755   2.792462   0.000000
 Stoichiometry    CHBrFI
 Framework group  C1[X(CHBrFI)]
 Deg. of freedom     9
 Full point group                 C1      NOp   1
 Largest Abelian subgroup         C1      NOp   1
 Largest concise Abelian subgroup C1      NOp   1
                         Standard orientation:                         
 ---------------------------------------------------------------------
 Center     Atomic      Atomic             Coordinates (Angstroms)
 Number     Number       Type             X           Y           Z
 ---------------------------------------------------------------------
      1          6           0       -0.460954    0.769684    0.438710
      2         53           0        1.499094   -0.187018   -0.018492
      3          1           0       -0.495143    0.904524    1.515863
      4          9           0       -0.552022    1.975650   -0.225805
      5         35           0       -2.034940   -0.382615   -0.032452
 ---------------------------------------------------------------------
 Rotational constants (GHZ):      4.8777519      0.8079487      0.7040761

 **********************************************************************

            Population analysis using the SCF density.

 **********************************************************************

 Orbital symmetries:
       Occupied  (A) (A) (A) (A) (A) (A) (A) (A) (A) (A) (A) (A)
                 (A) (A) (A) (A) (A) (A) (A) (A) (A) (A) (A) (A)
                 (A) (A) (A) (A) (A) (A) (A) (A) (A) (A) (A) (A)
                 (A) (A) (A) (A) (A) (A) (A) (A) (A) (A) (A) (A)
                 (A) (A) (A) (A)
       Virtual   (A) (A) (A) (A) (A) (A) (A) (A) (A) (A) (A) (A)
                 (A) (A) (A) (A) (A) (A) (A) (A) (A) (A) (A) (A)
 The electronic state is 1-A.
 Alpha  occ. eigenvalues -- **********-479.55778-175.58103-164.34415-164.34167
 Alpha  occ. eigenvalues -- -164.34166 -62.11245 -55.71682 -55.71214 -55.71206
 Alpha  occ. eigenvalues --  -35.74558 -30.90934 -30.90276 -30.90271 -24.59419
 Alpha  occ. eigenvalues --  -22.83448 -22.83239 -22.83236 -22.82768 -22.82768
 Alpha  occ. eigenvalues --  -10.31279  -8.62829  -6.42360  -6.40702  -6.40674
 Alpha  occ. eigenvalues --   -6.37767  -4.68773  -4.67080  -4.67069  -2.51691
 Alpha  occ. eigenvalues --   -2.51060  -2.51040  -2.49722  -2.49721  -2.06547
 Alpha  occ. eigenvalues --   -2.06022  -2.06013  -2.04574  -2.04573  -1.23407
 Alpha  occ. eigenvalues --   -0.81889  -0.71282  -0.63398  -0.53770  -0.48616
 Alpha  occ. eigenvalues --   -0.47452  -0.37074  -0.34869  -0.30350  -0.29179
 Alpha  occ. eigenvalues --   -0.27415  -0.26771
 Alpha virt. eigenvalues --   -0.08461  -0.01735   0.10307   0.12135   0.34043
 Alpha virt. eigenvalues --    0.38317   0.40163   0.40429   0.57526   0.61353
 Alpha virt. eigenvalues --    0.61913   0.67692   0.70605   0.75396   0.82187
 Alpha virt. eigenvalues --    0.96896   1.45854   1.89084   1.90683   2.00868
 Alpha virt. eigenvalues --    3.44190   4.10881  23.49675 225.77598
          Condensed to atoms (all electrons):
              1          2          3          4          5
     1  C    5.478920   0.198042   0.292203   0.194441   0.170274
     2  I    0.198042  52.738325  -0.042816  -0.023178  -0.046515
     3  H    0.292203  -0.042816   0.536865  -0.028210  -0.045612
     4  F    0.194441  -0.023178  -0.028210   9.121916  -0.028524
     5  Br   0.170274  -0.046515  -0.045612  -0.028524  34.843762
 Mulliken atomic charges:
              1
     1  C   -0.333881
     2  I    0.176142
     3  H    0.287571
     4  F   -0.236446
     5  Br   0.106614
 Sum of Mulliken atomic charges =   0.00000
 Mulliken charges with hydrogens summed into heavy atoms:
              1
     1  C   -0.046310
     2  I    0.176142
     4  F   -0.236446
     5  Br   0.106614
 Sum of Mulliken charges with hydrogens summed into heavy atoms =   0.00000
 Electronic spatial extent (au):  <R**2>=           1265.8730
 Charge=              0.0000 electrons
 Dipole moment (field-independent basis, Debye):
    X=              0.1121    Y=             -0.1370    Z=              1.3811  Tot=              1.3924
 Quadrupole moment (field-independent basis, Debye-Ang):
   XX=            -56.7112   YY=            -58.7725   ZZ=            -56.1458
   XY=             -0.2788   XZ=             -0.8966   YZ=              1.8487
 Traceless Quadrupole moment (field-independent basis, Debye-Ang):
   XX=              0.4986   YY=             -1.5626   ZZ=              1.0640
   XY=             -0.2788   XZ=             -0.8966   YZ=              1.8487
 Octapole moment (field-independent basis, Debye-Ang**2):
  XXX=              3.9554  YYY=             -9.6553  ZZZ=             -0.5980  XYY=             -0.3284
  XXY=             -9.0029  XXZ=             -4.0733  XZZ=             -1.7864  YZZ=              0.3014
  YYZ=              0.1516  XYZ=             -0.8489
 Hexadecapole moment (field-independent basis, Debye-Ang**3):
 XXXX=           -864.1027 YYYY=           -223.2705 ZZZZ=            -78.2022 XXXY=              4.3213
 XXXZ=              1.8216 YYYX=              6.5895 YYYZ=             -0.4229 ZZZX=              0.1026
 ZZZY=             -0.3342 XXYY=           -180.6151 XXZZ=           -167.2736 YYZZ=            -48.1203
 XXYZ=              2.4798 YYXZ=              0.0328 ZZXY=              0.1109
[...]
 Alpha virt. eigenvalues --    3.44190   4.10881  23.49675 225.77598
          Condensed to atoms (all electrons):
              1          2          3          4          5
     1  C    5.478920   0.198042   0.292203   0.194441   0.170274
     2  I    0.198042  52.738325  -0.042816  -0.023178  -0.046515
     3  H    0.292203  -0.042816   0.536865  -0.028210  -0.045612
     4  F    0.194441  -0.023178  -0.028210   9.121916  -0.028524
     5  Br   0.170274  -0.046515  -0.045612  -0.028524  34.843762
 Mulliken atomic charges:
              1
     1  C   -0.333881
     2  I    0.176142
     3  H    0.287571
     4  F   -0.236446
     5  Br   0.106614
 Sum of Mulliken atomic charges =   0.00000
 Mulliken charges with hydrogens summed into heavy atoms:
              1
     1  C   -0.046310
     2  I    0.176142
     4  F   -0.236446
     5  Br   0.106614
 Sum of Mulliken charges with hydrogens summed into heavy atoms =   0.00000
 APT atomic charges:
              1
     1  C    1.151401
     2  I   -0.242804
     3  H   -0.097317
     4  F   -0.483743
     5  Br  -0.327536
 Sum of APT charges=   0.00000
 APT Atomic charges with hydrogens summed into heavy atoms:
              1
     1  C    1.054084
     2  I   -0.242804
     3  H    0.000000
     4  F   -0.483743
     5  Br  -0.327536
 Sum of APT charges=   0.00000
 Electronic spatial extent (au):  <R**2>=           1265.8730
 Charge=              0.0000 electrons
 Dipole moment (field-independent basis, Debye):
    X=              0.1121    Y=             -0.1370    Z=              1.3811  Tot=              1.3924
 Quadrupole moment (field-independent basis, Debye-Ang):
   XX=            -56.7112   YY=            -58.7725   ZZ=            -56.1458
   XY=             -0.2788   XZ=             -0.8966   YZ=              1.8487
 Traceless Quadrupole moment (field-independent basis, Debye-Ang):
   XX=              0.4986   YY=             -1.5626   ZZ=              1.0640
   XY=             -0.2788   XZ=             -0.8966   YZ=              1.8487
 Octapole moment (field-independent basis, Debye-Ang**2):
  XXX=              3.9554  YYY=             -9.6553  ZZZ=             -0.5980  XYY=             -0.3284
  XXY=             -9.0029  XXZ=             -4.0733  XZZ=             -1.7864  YZZ=              0.3014
  YYZ=              0.1516  XYZ=             -0.8489
 Hexadecapole moment (field-independent basis, Debye-Ang**3):
 XXXX=           -864.1027 YYYY=           -223.2705 ZZZZ=            -78.2022 XXXY=              4.3213
 XXXZ=              1.8216 YYYX=              6.5895 YYYZ=             -0.4229 ZZZX=              0.1026
 ZZZY=             -0.3342 XXYY=           -180.6151 XXZZ=           -167.2736 YYZZ=            -48.1203
 XXYZ=              2.4798 YYXZ=              0.0328 ZZXY=              0.1109
 N-N= 5.958915983649D+02 E-N=-2.400027744880D+04  KE= 9.571762653171D+03
  Exact polarizability:  72.017  -0.611  31.924  -0.992   3.201  21.286
 Approx polarizability: 104.885  -3.061  52.383  -1.705   5.004  26.165
 Calling FoFJK, ICntrl=    100127 FMM=F ISym2X=0 I1Cent= 0 IOpClX= 0 NMat=1 NMatS=1 NMatT=0.
 Defaulting to unpruned grid for atomic number  53.
 Defaulting to unpruned grid for atomic number  53.
 Defaulting to unpruned grid for atomic number  53.
 Defaulting to unpruned grid for atomic number  53.
 Full mass-weighted force constant matrix:
 Low frequencies ---  -13.1026    0.0222    0.0232    0.0285    1.5430   14.8436
 Low frequencies ---  134.7421  250.1752  307.9520
 Harmonic frequencies (cm**-1), IR intensities (KM/Mole), Raman scattering
 activities (A**4/AMU), depolarization ratios for plane and unpolarized
 incident light, reduced masses (AMU), force constants (mDyne/A),
 and normal coordinates:
                     1                      2                      3
                     A                      A                      A
 Frequencies --   134.7377               250.1683               307.9508
 Red. masses --    46.6615                21.2110                17.7461
 Frc consts  --     0.4991                 0.7821                 0.9916
 IR Inten    --     0.0197                 0.6013                 1.3552
  Atom  AN      X      Y      Z        X      Y      Z        X      Y      Z
     1   6    -0.08  -0.40  -0.08     0.16  -0.21   0.08    -0.04   0.44  -0.28
     2  53     0.36   0.06   0.01    -0.11   0.11  -0.01     0.05  -0.04   0.00
     3   1    -0.03  -0.49  -0.07    -0.10  -0.15   0.07    -0.10   0.25  -0.26
     4   9    -0.03  -0.36  -0.01     0.90  -0.21  -0.03     0.21   0.69   0.10
     5  35    -0.56   0.07   0.01    -0.07  -0.09   0.01    -0.13  -0.17   0.02
                     4                      5                      6
                     A                      A                      A
 Frequencies --   534.1045               630.4799              1094.9029
 Red. masses --     5.4059                 7.6970                10.2015
 Frc consts  --     0.9086                 1.8027                 7.2055
 IR Inten    --    30.9345               204.0195               151.0917
  Atom  AN      X      Y      Z        X      Y      Z        X      Y      Z
     1   6    -0.20   0.28   0.49     0.70   0.16   0.17    -0.05   0.59  -0.36
     2  53     0.03  -0.01  -0.02    -0.02   0.00   0.01     0.00   0.00   0.00
     3   1    -0.29   0.58   0.46     0.59   0.25   0.17     0.11   0.41  -0.35
     4   9     0.04  -0.05  -0.09    -0.11  -0.02  -0.03     0.03  -0.40   0.24
     5  35    -0.02  -0.02  -0.03    -0.06  -0.03  -0.03     0.00   0.00   0.00
                     7                      8                      9
                     A                      A                      A
 Frequencies --  1176.6041              1316.5936              3170.1578
 Red. masses --     1.0785                 1.1293                 1.0882
 Frc consts  --     0.8797                 1.1534                 6.4433
 IR Inten    --   127.0127                15.8610                 6.5052
  Atom  AN      X      Y      Z        X      Y      Z        X      Y      Z
     1   6    -0.08   0.00   0.01     0.00  -0.09  -0.02     0.00  -0.01  -0.08
     2  53     0.00   0.00   0.00     0.00   0.00   0.00     0.00   0.00   0.00
     3   1     1.00   0.01   0.04     0.00   0.98  -0.15    -0.03   0.12   0.99
     4   9     0.01   0.01  -0.01     0.00   0.01   0.03     0.00   0.00   0.00
     5  35     0.00   0.00   0.00     0.00   0.00   0.00     0.00   0.00   0.00

 -------------------
 - Thermochemistry -
 -------------------
 Temperature   298.150 Kelvin.  Pressure   1.00000 Atm.
 Atom     1 has atomic number  6 and mass  12.00000
 Atom     2 has atomic number 53 and mass 126.90040
 Atom     3 has atomic number  1 and mass   1.00783
 Atom     4 has atomic number  9 and mass  18.99840
 Atom     5 has atomic number 35 and mass  78.91834
 Molecular mass:   237.82496 amu.
 Principal axes and moments of inertia in atomic units:
                           1         2         3
     Eigenvalues --   369.994462233.732522563.27571
           X            1.00000  -0.00147  -0.00167
           Y            0.00150   0.99983   0.01829
           Z            0.00164  -0.01829   0.99983
 This molecule is an asymmetric top.
 Rotational symmetry number  1.
 Rotational temperatures (Kelvin)      0.23409     0.03878     0.03379
 Rotational constants (GHZ):           4.87775     0.80795     0.70408
 Zero-point vibrational energy      51533.3 (Joules/Mol)
                                   12.31676 (Kcal/Mol)
 Warning -- explicit consideration of   4 degrees of freedom as
           vibrations may cause significant error
 Vibrational temperatures:    193.86   359.94   443.07   768.46   907.12
          (Kelvin)           1575.32  1692.87  1894.28  4561.14
 
 Zero-point correction=                           0.019628 (Hartree/Particle)
 Thermal correction to Energy=                    0.024426
 Thermal correction to Enthalpy=                  0.025370
 Thermal correction to Gibbs Free Energy=        -0.011944
 Sum of electronic and zero-point Energies=          -9590.110048
 Sum of electronic and thermal Energies=             -9590.105250
 Sum of electronic and thermal Enthalpies=           -9590.104306
 Sum of electronic and thermal Free Energies=        -9590.141619
 
                     E (Thermal)             CV                S
                      KCal/Mol        Cal/Mol-Kelvin    Cal/Mol-Kelvin
 Total                   15.327             14.089             78.533
 Electronic               0.000              0.000              0.000
 Translational            0.889              2.981             42.301
 Rotational               0.889              2.981             29.140
 Vibrational             13.550              8.127              7.093
 Vibration     1          0.613              1.919              2.877
 Vibration     2          0.663              1.762              1.729
 Vibration     3          0.698              1.659              1.373
 Vibration     4          0.889              1.175              0.578
                       Q            Log10(Q)             Ln(Q)
 Total Bot       0.311661D+06          5.493683         12.649672
 Total V=0       0.332599D+15         14.521921         33.437958
 Vib (Bot)       0.414939D-08         -8.382016        -19.300305
 Vib (Bot)    1  0.151123D+01          0.179329          0.412921
 Vib (Bot)    2  0.780100D+00         -0.107850         -0.248334
 Vib (Bot)    3  0.614764D+00         -0.211291         -0.486516
 Vib (Bot)    4  0.298288D+00         -0.525365         -1.209697
 Vib (V=0)       0.442815D+01          0.646222          1.487981
 Vib (V=0)    1  0.209179D+01          0.320519          0.738021
 Vib (V=0)    2  0.142658D+01          0.154297          0.355282
 Vib (V=0)    3  0.129242D+01          0.111405          0.256519
 Vib (V=0)    4  0.108222D+01          0.034314          0.079011
 Electronic      0.100000D+01          0.000000          0.000000
 Translational   0.144159D+09          8.158841         18.786427
 Rotational      0.521023D+06          5.716857         13.163550
 ***** Axes restored to original set *****
 -------------------------------------------------------------------
 Center     Atomic                   Forces (Hartrees/Bohr)
 Number     Number              X              Y              Z
 -------------------------------------------------------------------
      1        6          -0.000002923    0.000044315   -0.000028761
      2       53           0.000055380    0.000038173    0.000017383
      3        1          -0.000031644    0.000014845   -0.000017467
      4        9           0.000013515   -0.000084694    0.000022741
      5       35          -0.000034327   -0.000012639    0.000006103
 -------------------------------------------------------------------
 Cartesian Forces:  Max     0.000084694 RMS     0.000035025

 GradGradGradGradGradGradGradGradGradGradGradGradGradGradGradGradGradGrad
 Berny optimization.
 Internal  Forces:  Max     0.000052716 RMS     0.000024667
 Search for a local minimum.
 Step number   1 out of a maximum of    2
 All quantities printed in internal units (Hartrees-Bohrs-Radians)
 Second derivative matrix not updated -- analytic derivatives used.
 The second derivative matrix:
                          R1        R2        R3        R4        A1
           R1           0.11573
           R2           0.00077   0.35350
           R3           0.02593   0.00803   0.37395
           R4           0.01387  -0.00003   0.02656   0.14567
           A1           0.00514  -0.00085  -0.00446  -0.00750   0.01990
           A2           0.00648  -0.00012   0.00888  -0.01291  -0.01015
           A3           0.01304  -0.00006  -0.01614   0.00783  -0.01443
           A4          -0.00062   0.00373   0.01542  -0.01154  -0.00859
           A5          -0.01167  -0.00117  -0.01498   0.01349  -0.01304
           A6          -0.01232  -0.00138   0.01063   0.01046   0.02555
           D1          -0.01007  -0.00115  -0.00948   0.02443  -0.01295
           D2           0.00599  -0.00180  -0.02353   0.00357   0.00821
           D3          -0.00841   0.00122  -0.00805   0.00347   0.00433
           D4          -0.01439   0.00301   0.01549  -0.00011  -0.00389
                          A2        A3        A4        A5        A6
           A2           0.05880
           A3          -0.03125   0.10856
           A4           0.00146   0.02432   0.04929
           A5           0.02732  -0.04095  -0.02363   0.08119
           A6          -0.04640  -0.04351  -0.04018  -0.03023   0.12998
           D1          -0.02550   0.02278  -0.02027   0.01321   0.02217
           D2          -0.01211   0.01551  -0.01210   0.01289  -0.01143
           D3          -0.01982  -0.00346   0.01083   0.01577  -0.00573
           D4          -0.00771  -0.01897   0.02293   0.00288   0.00570
                          D1        D2        D3        D4
           D1           0.04441
           D2           0.00486   0.02645
           D3           0.00060   0.01327   0.03235
           D4          -0.00426  -0.01318   0.01908   0.03227
 ITU=  0
     Eigenvalues ---    0.04023   0.06722   0.08000   0.11874   0.15499
     Eigenvalues ---    0.17369   0.19812   0.35156   0.38750
 Angle between quadratic step and forces=  32.50 degrees.
 Linear search not attempted -- first point.
 Iteration  1 RMS(Cart)=  0.00022535 RMS(Int)=  0.00000002
 Iteration  2 RMS(Cart)=  0.00000003 RMS(Int)=  0.00000000
 Variable       Old X    -DE/DX   Delta X   Delta X   Delta X     New X
                                 (Linear)    (Quad)   (Total)
    R1        4.21121   0.00004   0.00000   0.00035   0.00035   4.21156
    R2        2.05243   0.00001   0.00000   0.00001   0.00001   2.05244
    R3        2.60770   0.00004   0.00000   0.00010   0.00010   2.60781
    R4        3.79229   0.00000   0.00000  -0.00004  -0.00004   3.79225
    A1        1.85924   0.00002   0.00000   0.00026   0.00026   1.85949
    A2        1.91180  -0.00003   0.00000  -0.00025  -0.00025   1.91155
    A3        1.97706  -0.00002   0.00000  -0.00016  -0.00016   1.97690
    A4        1.94659  -0.00001   0.00000  -0.00006  -0.00006   1.94653
    A5        1.85401  -0.00002   0.00000  -0.00004  -0.00004   1.85397
    A6        1.91451   0.00005   0.00000   0.00026   0.00026   1.91477
    D1       -2.05386   0.00000   0.00000  -0.00012  -0.00012  -2.05398
    D2        2.03501   0.00001   0.00000   0.00020   0.00020   2.03520
    D3       -2.14202   0.00001   0.00000   0.00025   0.00025  -2.14177
    D4        2.10616   0.00000   0.00000   0.00005   0.00005   2.10621
         Item               Value     Threshold  Converged?
 Maximum Force            0.000053     0.000450     YES
 RMS     Force            0.000025     0.000300     YES
 Maximum Displacement     0.000372     0.001800     YES
 RMS     Displacement     0.000225     0.001200     YES
 Predicted change in Energy=-2.696623D-08
 Optimization completed.
    -- Stationary point found.
                           ----------------------------
                           !   Optimized Parameters   !
                           ! (Angstroms and Degrees)  !
 --------------------------                            --------------------------
 ! Name  Definition              Value          Derivative Info.                !
 --------------------------------------------------------------------------------
 ! R1    R(1,2)                  2.2285         -DE/DX =    0.0                 !
 ! R2    R(1,3)                  1.0861         -DE/DX =    0.0                 !
 ! R3    R(1,4)                  1.3799         -DE/DX =    0.0                 !
 ! R4    R(1,5)                  2.0068         -DE/DX =    0.0                 !
 ! A1    A(2,1,3)              106.5266         -DE/DX =    0.0                 !
 ! A2    A(2,1,4)              109.538          -DE/DX =    0.0                 !
 ! A3    A(2,1,5)              113.277          -DE/DX =    0.0                 !
 ! A4    A(3,1,4)              111.5314         -DE/DX =    0.0                 !
 ! A5    A(3,1,5)              106.2272         -DE/DX =    0.0                 !
 ! A6    A(4,1,5)              109.6934         -DE/DX =    0.0001              !
 ! D1    D(2,1,4,3)           -117.6775         -DE/DX =    0.0                 !
 ! D2    D(2,1,5,3)            116.5973         -DE/DX =    0.0                 !
 ! D3    D(2,1,5,4)           -122.7284         -DE/DX =    0.0                 !
 ! D4    D(3,1,5,4)            120.6742         -DE/DX =    0.0                 !
 --------------------------------------------------------------------------------
 GradGradGradGradGradGradGradGradGradGradGradGradGradGradGradGradGradGrad


 Test job not archived.
 1\1\GINC-TERMINUS\Freq\RB3LYP\3-21G\C1H1Br1F1I1\FRODOX\23-Jan-2018\0\\
 #N Geom=AllCheck Guess=TCheck SCRF=Check Test GenChk RB3LYP/3-21G Freq
 \\SymmetricEnantiomers/r-tmp.xyz\\0,1\C,-0.5232240371,-0.1880234687,-0
 .880865549\I,1.1012240623,-0.8869124481,0.4751650332\H,-0.0863449594,-
 0.1109682594,-1.8722333231\F,-1.5659764767,-1.0914970458,-0.8557644253
 \Br,-1.204279589,1.6436112221,-0.4242507358\\Version=EM64L-G09RevB.01\
 State=1-A\HF=-9590.1296755\RMSD=6.038e-10\RMSF=3.502e-05\ZeroPoint=0.0
 19628\Thermal=0.0244257\Dipole=0.3280287,0.0854755,-0.4303346\DipoleDe
 riv=1.3866366,-0.2996791,0.5432107,-0.3095099,1.4813529,0.0143117,0.35
 14364,-0.0800738,0.586213,-0.3783585,0.1890529,-0.1891283,0.1594093,-0
 .1686374,0.0864218,-0.2285143,0.1130102,-0.1814164,-0.0963741,0.118432
 7,-0.0648072,0.1163441,-0.1034596,0.021898,-0.0495138,0.0329771,-0.092
 1171,-0.6733541,-0.2448546,-0.2533577,-0.267317,-0.5563793,-0.1580115,
 -0.0767309,0.0049177,-0.221497,-0.2385499,0.237048,-0.0359175,0.301073
 5,-0.6528766,0.03538,0.0033226,-0.0708313,-0.0911825\Polar=45.9449087,
 -20.2691118,49.0082247,13.7134553,-5.2379957,30.2733745\PG=C01 [X(C1H1
 Br1F1I1)]\NImag=0\\0.34164595,0.09683653,0.27637414,-0.11702713,-0.014
 38234,0.44192708,-0.02796070,0.01407106,-0.02453570,0.06805656,0.01053
 160,-0.02175906,0.01506161,-0.02219811,0.02678148,-0.01126433,0.012575
 08,-0.04566706,0.04565288,-0.01903098,0.05121103,-0.08196840,-0.012058
 78,0.09883421,-0.00422143,0.00529371,-0.01905769,0.10475996,-0.0092822
 9,-0.03883335,0.00827819,0.00357029,0.00043050,0.00864476,0.01429196,0
 .05770077,0.11630916,0.01680514,-0.30299917,-0.00231262,0.00240319,-0.
 00814278,-0.11192876,-0.01956738,0.30090284,-0.19682758,-0.12486279,0.
 02759086,-0.02840931,-0.00633737,-0.01359689,-0.01751427,-0.02125377,-
 0.00230646,0.23565036,-0.12844670,-0.15117898,0.01872625,-0.00596848,0
 .00508374,-0.00456920,-0.01366892,-0.00567385,-0.00129197,0.16071636,0
 .18644622,0.00172814,-0.00429258,-0.05887037,-0.01384448,-0.00514351,0
 .00044590,0.02499692,0.02200079,0.00887508,-0.00925725,-0.00789409,0.0
 4462251,-0.03488927,0.02601398,0.01513776,-0.00746511,0.01271016,-0.00
 173397,-0.00105585,0.01267381,0.00023868,0.00710079,-0.01263226,-0.003
 62334,0.03630944,0.03036086,-0.06460275,-0.02768371,0.01052524,-0.0105
 3665,0.00238034,0.00614202,-0.01362406,0.00165103,-0.00826243,-0.03467
 713,-0.00467061,-0.03876569,0.12344059,0.01025416,-0.01070530,-0.03439
 049,-0.00496009,0.00670968,0.00215291,0.00715531,-0.01935635,0.0013640
 4,-0.00243026,-0.00497099,0.00492688,-0.01001913,0.02832295,0.02594666
 \\0.00000292,-0.00004432,0.00002876,-0.00005538,-0.00003817,-0.0000173
 8,0.00003164,-0.00001484,0.00001747,-0.00001351,0.00008469,-0.00002274
 ,0.00003433,0.00001264,-0.00000610\\\@


 A CHEMICAL PHYSICIST MAKES PRECISE MEASUREMENTS ON IMPURE COMPOUNDS.
 A THEORETICAL PHYSICAL CHEMIST MAKES IMPRECISE
     MEASUREMENTS ON PURE COMPOUNDS.
 AN EXPERIMENTAL PHYSICAL CHEMIST MAKES IMPRECISE
     MEASUREMENTS ON IMPURE COMPOUNDS.
 Job cpu time:  0 days  0 hours  0 minutes 18.3 seconds.
 File lengths (MBytes):  RWF=      9 Int=      0 D2E=      0 Chk=      1 Scr=      1
 Normal termination of Gaussian 09 at Tue Jan 23 03:36:35 2018.
