 Entering Gaussian System, Link 0=g09
 Input=D_-_Fructuose.inp
 Output=D_-_Fructuose.log
 Initial command:
 /usr/local/g09/l1.exe /home/g09scr/Gau-7617.inp -scrdir=/home/g09scr/
 Entering Link 1 = /usr/local/g09/l1.exe PID=      7619.
  
 Copyright (c) 1988,1990,1992,1993,1995,1998,2003,2009,2010,
            Gaussian, Inc.  All Rights Reserved.
  
 This is part of the Gaussian(R) 09 program.  It is based on
 the Gaussian(R) 03 system (copyright 2003, Gaussian, Inc.),
 the Gaussian(R) 98 system (copyright 1998, Gaussian, Inc.),
 the Gaussian(R) 94 system (copyright 1995, Gaussian, Inc.),
 the Gaussian 92(TM) system (copyright 1992, Gaussian, Inc.),
 the Gaussian 90(TM) system (copyright 1990, Gaussian, Inc.),
 the Gaussian 88(TM) system (copyright 1988, Gaussian, Inc.),
 the Gaussian 86(TM) system (copyright 1986, Carnegie Mellon
 University), and the Gaussian 82(TM) system (copyright 1983,
 Carnegie Mellon University). Gaussian is a federally registered
 trademark of Gaussian, Inc.
  
 This software contains proprietary and confidential information,
 including trade secrets, belonging to Gaussian, Inc.
  
 This software is provided under written license and may be
 used, copied, transmitted, or stored only in accord with that
 written license.
  
 The following legend is applicable only to US Government
 contracts under FAR:
  
                    RESTRICTED RIGHTS LEGEND
  
 Use, reproduction and disclosure by the US Government is
 subject to restrictions as set forth in subparagraphs (a)
 and (c) of the Commercial Computer Software - Restricted
 Rights clause in FAR 52.227-19.
  
 Gaussian, Inc.
 340 Quinnipiac St., Bldg. 40, Wallingford CT 06492
  
  
 ---------------------------------------------------------------
 Warning -- This program may not be used in any manner that
 competes with the business of Gaussian, Inc. or will provide
 assistance to any competitor of Gaussian, Inc.  The licensee
 of this program is prohibited from giving any competitor of
 Gaussian, Inc. access to this program.  By using this program,
 the user acknowledges that Gaussian, Inc. is engaged in the
 business of creating and licensing software in the field of
 computational chemistry and represents and warrants to the
 licensee that it is not a competitor of Gaussian, Inc. and that
 it will not use this program in any manner prohibited above.
 ---------------------------------------------------------------
  

 Cite this work as:
 Gaussian 09, Revision B.01,
 M. J. Frisch, G. W. Trucks, H. B. Schlegel, G. E. Scuseria, 
 M. A. Robb, J. R. Cheeseman, G. Scalmani, V. Barone, B. Mennucci, 
 G. A. Petersson, H. Nakatsuji, M. Caricato, X. Li, H. P. Hratchian, 
 A. F. Izmaylov, J. Bloino, G. Zheng, J. L. Sonnenberg, M. Hada, 
 M. Ehara, K. Toyota, R. Fukuda, J. Hasegawa, M. Ishida, T. Nakajima, 
 Y. Honda, O. Kitao, H. Nakai, T. Vreven, J. A. Montgomery, Jr., 
 J. E. Peralta, F. Ogliaro, M. Bearpark, J. J. Heyd, E. Brothers, 
 K. N. Kudin, V. N. Staroverov, T. Keith, R. Kobayashi, J. Normand, 
 K. Raghavachari, A. Rendell, J. C. Burant, S. S. Iyengar, J. Tomasi, 
 M. Cossi, N. Rega, J. M. Millam, M. Klene, J. E. Knox, J. B. Cross, 
 V. Bakken, C. Adamo, J. Jaramillo, R. Gomperts, R. E. Stratmann, 
 O. Yazyev, A. J. Austin, R. Cammi, C. Pomelli, J. W. Ochterski, 
 R. L. Martin, K. Morokuma, V. G. Zakrzewski, G. A. Voth, 
 P. Salvador, J. J. Dannenberg, S. Dapprich, A. D. Daniels, 
 O. Farkas, J. B. Foresman, J. V. Ortiz, J. Cioslowski, 
 and D. J. Fox, Gaussian, Inc., Wallingford CT, 2010.
 
 ******************************************
 Gaussian 09:  EM64L-G09RevB.01 12-Aug-2010
                22-Jan-2018 
 ******************************************
 %nproc=4
 Will use up to    4 processors via shared memory.
 %mem=60gb
 ------------------------------
 #B3LYP/6-311G** fopt test freq
 ------------------------------
 1/14=-1,18=20,19=15,26=3,38=1/1,3;
 2/9=110,12=2,14=103,17=6,18=5,40=1/2;
 3/5=4,6=6,7=101,11=2,16=1,25=1,30=1,71=1,74=-5/1,2,3;
 4//1;
 5/5=2,38=5/2;
 6/7=2,8=2,9=2,10=2,28=1/1;
 7//1,2,3,16;
 1/14=-1,18=20,19=15/3(2);
 2/9=110/2;
 99//99;
 2/9=110/2;
 3/5=4,6=6,7=101,11=2,16=1,25=1,30=1,71=1,74=-5/1,2,3;
 4/5=5,16=3/1;
 5/5=2,38=5/2;
 7//1,2,3,16;
 1/14=-1,18=20,19=15/3(-5);
 2/9=110/2;
 6/7=2,8=2,9=2,10=2,19=2,28=1/1;
 99/9=1/99;
 ------------------------
 Sugars/D_-_Fructuose.xyz
 ------------------------
 Symbolic Z-matrix:
 Charge =  0 Multiplicity = 1
 O                    -0.3508    0.2852    1.6168 
 O                    -2.1229   -0.0967   -1.5767 
 O                     0.3999   -1.9832    0.0163 
 O                    -4.2737    0.3477    0.1329 
 O                     2.7917   -1.0026    0.5184 
 O                     3.8346    1.3519   -0.1667 
 C                    -0.498     0.2331    0.2008 
 C                    -1.9435   -0.1555   -0.1619 
 C                     0.5984   -0.6447   -0.4216 
 C                    -2.9638    0.7835    0.4823 
 C                     2.033    -0.2421   -0.0847 
 C                     2.4951    1.1234   -0.556 
 H                    -0.3271    1.2533   -0.1665 
 H                    -2.1596   -1.1825    0.153 
 H                     0.5128   -0.6492   -1.5135 
 H                    -2.8919    0.7765    1.5733 
 H                    -2.8443    1.8081    0.1148 
 H                    -0.7717    1.1026    1.932 
 H                     2.4381    1.1623   -1.6468 
 H                     1.8696    1.907    -0.1228 
 H                    -1.9237    0.8101   -1.8659 
 H                     0.4087   -1.9817    0.989 
 H                    -4.8996    0.964     0.5499 
 H                     3.8537    1.3937    0.8047 
 

 GradGradGradGradGradGradGradGradGradGradGradGradGradGradGradGradGradGrad
 Berny optimization.
 Initialization pass.
                           ----------------------------
                           !    Initial Parameters    !
                           ! (Angstroms and Degrees)  !
 --------------------------                            --------------------------
 ! Name  Definition              Value          Derivative Info.                !
 --------------------------------------------------------------------------------
 ! R1    R(1,7)                  1.4246         estimate D2E/DX2                !
 ! R2    R(1,18)                 0.9719         estimate D2E/DX2                !
 ! R3    R(2,8)                  1.4273         estimate D2E/DX2                !
 ! R4    R(2,21)                 0.9724         estimate D2E/DX2                !
 ! R5    R(3,9)                  1.4222         estimate D2E/DX2                !
 ! R6    R(3,22)                 0.9727         estimate D2E/DX2                !
 ! R7    R(4,10)                 1.424          estimate D2E/DX2                !
 ! R8    R(4,23)                 0.9724         estimate D2E/DX2                !
 ! R9    R(5,11)                 1.232          estimate D2E/DX2                !
 ! R10   R(6,12)                 1.4135         estimate D2E/DX2                !
 ! R11   R(6,24)                 0.9725         estimate D2E/DX2                !
 ! R12   R(7,8)                  1.5401         estimate D2E/DX2                !
 ! R13   R(7,9)                  1.5362         estimate D2E/DX2                !
 ! R14   R(7,13)                 1.0977         estimate D2E/DX2                !
 ! R15   R(8,10)                 1.529          estimate D2E/DX2                !
 ! R16   R(8,14)                 1.0957         estimate D2E/DX2                !
 ! R17   R(9,11)                 1.5276         estimate D2E/DX2                !
 ! R18   R(9,15)                 1.0953         estimate D2E/DX2                !
 ! R19   R(10,16)                1.0934         estimate D2E/DX2                !
 ! R20   R(10,17)                1.0951         estimate D2E/DX2                !
 ! R21   R(11,12)                1.5167         estimate D2E/DX2                !
 ! R22   R(12,19)                1.093          estimate D2E/DX2                !
 ! R23   R(12,20)                1.0922         estimate D2E/DX2                !
 ! A1    A(7,1,18)             107.9604         estimate D2E/DX2                !
 ! A2    A(8,2,21)             107.9061         estimate D2E/DX2                !
 ! A3    A(9,3,22)             107.7684         estimate D2E/DX2                !
 ! A4    A(10,4,23)            107.0325         estimate D2E/DX2                !
 ! A5    A(12,6,24)            107.4976         estimate D2E/DX2                !
 ! A6    A(1,7,8)              109.8943         estimate D2E/DX2                !
 ! A7    A(1,7,9)              110.4787         estimate D2E/DX2                !
 ! A8    A(1,7,13)             106.4105         estimate D2E/DX2                !
 ! A9    A(8,7,9)              115.4837         estimate D2E/DX2                !
 ! A10   A(8,7,13)             107.5673         estimate D2E/DX2                !
 ! A11   A(9,7,13)             106.5217         estimate D2E/DX2                !
 ! A12   A(2,8,7)              109.9378         estimate D2E/DX2                !
 ! A13   A(2,8,10)             107.9662         estimate D2E/DX2                !
 ! A14   A(2,8,14)             107.379          estimate D2E/DX2                !
 ! A15   A(7,8,10)             111.847          estimate D2E/DX2                !
 ! A16   A(7,8,14)             110.727          estimate D2E/DX2                !
 ! A17   A(10,8,14)            108.8402         estimate D2E/DX2                !
 ! A18   A(3,9,7)              108.2645         estimate D2E/DX2                !
 ! A19   A(3,9,11)             108.1313         estimate D2E/DX2                !
 ! A20   A(3,9,15)             106.9884         estimate D2E/DX2                !
 ! A21   A(7,9,11)             115.486          estimate D2E/DX2                !
 ! A22   A(7,9,15)             110.5163         estimate D2E/DX2                !
 ! A23   A(11,9,15)            107.1179         estimate D2E/DX2                !
 ! A24   A(4,10,8)             108.8147         estimate D2E/DX2                !
 ! A25   A(4,10,16)            107.6592         estimate D2E/DX2                !
 ! A26   A(4,10,17)            107.7211         estimate D2E/DX2                !
 ! A27   A(8,10,16)            111.8759         estimate D2E/DX2                !
 ! A28   A(8,10,17)            111.1253         estimate D2E/DX2                !
 ! A29   A(16,10,17)           109.4923         estimate D2E/DX2                !
 ! A30   A(5,11,9)             121.5753         estimate D2E/DX2                !
 ! A31   A(5,11,12)            121.3506         estimate D2E/DX2                !
 ! A32   A(9,11,12)            117.0569         estimate D2E/DX2                !
 ! A33   A(6,12,11)            110.407          estimate D2E/DX2                !
 ! A34   A(6,12,19)            108.574          estimate D2E/DX2                !
 ! A35   A(6,12,20)            108.5111         estimate D2E/DX2                !
 ! A36   A(11,12,19)           109.0433         estimate D2E/DX2                !
 ! A37   A(11,12,20)           110.377          estimate D2E/DX2                !
 ! A38   A(19,12,20)           109.9032         estimate D2E/DX2                !
 ! D1    D(18,1,7,8)           -75.5768         estimate D2E/DX2                !
 ! D2    D(18,1,7,9)           155.8453         estimate D2E/DX2                !
 ! D3    D(18,1,7,13)           40.6032         estimate D2E/DX2                !
 ! D4    D(21,2,8,7)           -58.8775         estimate D2E/DX2                !
 ! D5    D(21,2,8,10)           63.3833         estimate D2E/DX2                !
 ! D6    D(21,2,8,14)         -179.4094         estimate D2E/DX2                !
 ! D7    D(22,3,9,7)           -56.7982         estimate D2E/DX2                !
 ! D8    D(22,3,9,11)           68.9952         estimate D2E/DX2                !
 ! D9    D(22,3,9,15)         -175.9244         estimate D2E/DX2                !
 ! D10   D(23,4,10,8)         -179.647          estimate D2E/DX2                !
 ! D11   D(23,4,10,16)          58.9157         estimate D2E/DX2                !
 ! D12   D(23,4,10,17)         -59.0768         estimate D2E/DX2                !
 ! D13   D(24,6,12,11)         -65.5089         estimate D2E/DX2                !
 ! D14   D(24,6,12,19)         175.0007         estimate D2E/DX2                !
 ! D15   D(24,6,12,20)          55.5785         estimate D2E/DX2                !
 ! D16   D(1,7,8,2)            175.0646         estimate D2E/DX2                !
 ! D17   D(1,7,8,10)            55.1345         estimate D2E/DX2                !
 ! D18   D(1,7,8,14)           -66.4466         estimate D2E/DX2                !
 ! D19   D(9,7,8,2)            -59.1574         estimate D2E/DX2                !
 ! D20   D(9,7,8,10)          -179.0875         estimate D2E/DX2                !
 ! D21   D(9,7,8,14)            59.3313         estimate D2E/DX2                !
 ! D22   D(13,7,8,2)            59.6152         estimate D2E/DX2                !
 ! D23   D(13,7,8,10)          -60.3149         estimate D2E/DX2                !
 ! D24   D(13,7,8,14)          178.1039         estimate D2E/DX2                !
 ! D25   D(1,7,9,3)             65.6461         estimate D2E/DX2                !
 ! D26   D(1,7,9,11)           -55.7097         estimate D2E/DX2                !
 ! D27   D(1,7,9,15)          -177.4808         estimate D2E/DX2                !
 ! D28   D(8,7,9,3)            -59.8321         estimate D2E/DX2                !
 ! D29   D(8,7,9,11)           178.8121         estimate D2E/DX2                !
 ! D30   D(8,7,9,15)            57.041          estimate D2E/DX2                !
 ! D31   D(13,7,9,3)          -179.1816         estimate D2E/DX2                !
 ! D32   D(13,7,9,11)           59.4626         estimate D2E/DX2                !
 ! D33   D(13,7,9,15)          -62.3085         estimate D2E/DX2                !
 ! D34   D(2,8,10,4)            60.3309         estimate D2E/DX2                !
 ! D35   D(2,8,10,16)          179.1566         estimate D2E/DX2                !
 ! D36   D(2,8,10,17)          -58.1181         estimate D2E/DX2                !
 ! D37   D(7,8,10,4)          -178.5897         estimate D2E/DX2                !
 ! D38   D(7,8,10,16)          -59.7641         estimate D2E/DX2                !
 ! D39   D(7,8,10,17)           62.9612         estimate D2E/DX2                !
 ! D40   D(14,8,10,4)          -55.9276         estimate D2E/DX2                !
 ! D41   D(14,8,10,16)          62.8981         estimate D2E/DX2                !
 ! D42   D(14,8,10,17)        -174.3766         estimate D2E/DX2                !
 ! D43   D(3,9,11,5)            -2.7873         estimate D2E/DX2                !
 ! D44   D(3,9,11,12)          175.7219         estimate D2E/DX2                !
 ! D45   D(7,9,11,5)           118.6403         estimate D2E/DX2                !
 ! D46   D(7,9,11,12)          -62.8505         estimate D2E/DX2                !
 ! D47   D(15,9,11,5)         -117.7826         estimate D2E/DX2                !
 ! D48   D(15,9,11,12)          60.7266         estimate D2E/DX2                !
 ! D49   D(5,11,12,6)           -1.6942         estimate D2E/DX2                !
 ! D50   D(5,11,12,19)         117.5119         estimate D2E/DX2                !
 ! D51   D(5,11,12,20)        -121.6646         estimate D2E/DX2                !
 ! D52   D(9,11,12,6)          179.793          estimate D2E/DX2                !
 ! D53   D(9,11,12,19)         -61.0008         estimate D2E/DX2                !
 ! D54   D(9,11,12,20)          59.8227         estimate D2E/DX2                !
 --------------------------------------------------------------------------------
 Trust Radius=3.00D-01 FncErr=1.00D-07 GrdErr=1.00D-06
 Number of steps in this run=    125 maximum allowed number of steps=    144.
 GradGradGradGradGradGradGradGradGradGradGradGradGradGradGradGradGradGrad

                          Input orientation:                          
 ---------------------------------------------------------------------
 Center     Atomic      Atomic             Coordinates (Angstroms)
 Number     Number       Type             X           Y           Z
 ---------------------------------------------------------------------
      1          8           0       -0.350800    0.285200    1.616800
      2          8           0       -2.122900   -0.096700   -1.576700
      3          8           0        0.399900   -1.983200    0.016300
      4          8           0       -4.273700    0.347700    0.132900
      5          8           0        2.791700   -1.002600    0.518400
      6          8           0        3.834600    1.351900   -0.166700
      7          6           0       -0.498000    0.233100    0.200800
      8          6           0       -1.943500   -0.155500   -0.161900
      9          6           0        0.598400   -0.644700   -0.421600
     10          6           0       -2.963800    0.783500    0.482300
     11          6           0        2.033000   -0.242100   -0.084700
     12          6           0        2.495100    1.123400   -0.556000
     13          1           0       -0.327100    1.253300   -0.166500
     14          1           0       -2.159600   -1.182500    0.153000
     15          1           0        0.512800   -0.649200   -1.513500
     16          1           0       -2.891900    0.776500    1.573300
     17          1           0       -2.844300    1.808100    0.114800
     18          1           0       -0.771700    1.102600    1.932000
     19          1           0        2.438100    1.162300   -1.646800
     20          1           0        1.869600    1.907000   -0.122800
     21          1           0       -1.923700    0.810100   -1.865900
     22          1           0        0.408700   -1.981700    0.989000
     23          1           0       -4.899600    0.964000    0.549900
     24          1           0        3.853700    1.393700    0.804700
 ---------------------------------------------------------------------
                    Distance matrix (angstroms):
                    1          2          3          4          5
     1  O    0.000000
     2  O    3.672142   0.000000
     3  O    2.875898   3.530021   0.000000
     4  O    4.194641   2.783193   5.223909   0.000000
     5  O    3.569344   5.418800   2.633323   7.203596   0.000000
     6  O    4.672932   6.291133   4.790986   8.175739   2.664709
     7  C    1.424584   2.430756   2.398385   3.778049   3.528449
     8  C    2.427897   1.427340   2.977208   2.402072   4.858241
     9  C    2.433263   3.006665   1.422231   5.002968   2.412935
    10  C    2.891913   2.391933   4.380213   1.424022   6.026378
    11  C    2.975844   4.417998   2.389277   6.337955   1.231956
    12  C    3.677334   4.884301   3.790561   6.847843   2.400455
    13  H    2.029270   2.652558   3.322180   4.060222   3.909615
    14  H    2.751111   2.042589   2.685302   2.609853   4.968023
    15  H    3.379007   2.693727   2.032877   5.158975   3.073580
    16  H    2.588524   3.358026   4.569042   2.041566   6.048249
    17  H    3.285235   2.647613   4.990841   2.043595   6.310897
    18  H    0.971931   3.946522   3.816375   4.008820   4.373551
    19  H    4.381592   4.732094   4.100528   6.991364   3.082193
    20  H    3.253709   4.697733   4.160892   6.343259   3.118842
    21  H    3.857296   0.972421   4.091982   3.119538   5.586212
    22  H    2.471803   4.067559   0.972741   5.299423   2.618929
    23  H    4.721295   3.654802   6.087316   0.972351   7.938804
    24  H    4.423358   6.603946   4.894258   8.221926   2.636677
                    6          7          8          9         10
     6  O    0.000000
     7  C    4.489788   0.000000
     8  C    5.971492   1.540140   0.000000
     9  C    3.811086   1.536232   2.601541   0.000000
    10  C    6.852921   2.542116   1.528963   3.942849   0.000000
    11  C    2.406932   2.591001   3.978192   1.527634   5.132383
    12  C    1.413516   3.213103   4.635954   2.596481   5.567153
    13  H    4.162868   1.097690   2.144175   2.126977   2.755692
    14  H    6.515813   2.183374   1.095714   2.868093   2.149496
    15  H    4.105195   2.176923   2.846748   1.095259   4.257064
    16  H    6.971692   2.812436   2.186094   4.263992   1.093389
    17  H    6.700378   2.827215   2.178010   4.261002   1.095053
    18  H    5.068007   1.956526   2.709308   3.235686   2.647406
    19  H    2.043736   3.591340   4.810400   2.854971   5.818684
    20  H    2.042373   2.917565   4.335339   2.866427   4.999015
    21  H    6.028171   2.576198   1.958671   3.250144   2.568377
    22  H    4.917857   2.519663   3.192557   1.952779   4.390539
    23  H    8.772128   4.475508   3.240134   5.810313   1.945372
    24  H    0.972487   4.544115   6.077982   4.031856   6.852342
                   11         12         13         14         15
    11  C    0.000000
    12  C    1.516658   0.000000
    13  H    2.795172   2.851911   0.000000
    14  H    4.303342   5.242718   3.064842   0.000000
    15  H    2.125608   2.826381   2.477771   3.194269   0.000000
    16  H    5.295390   5.802933   3.135672   2.528082   4.811750
    17  H    5.294448   5.424756   2.592919   3.068218   4.467640
    18  H    3.706972   4.106405   2.150368   3.211353   4.073109
    19  H    2.139299   1.092981   3.137818   5.465914   2.646900
    20  H    2.155640   1.092219   2.292319   5.084833   3.210780
    21  H    4.464893   4.619501   2.373503   2.846412   2.861866
    22  H    2.611013   4.047436   3.513091   2.816697   2.837058
    23  H    7.065291   7.478637   4.637314   3.503226   6.012829
    24  H    2.604193   1.941742   4.294418   6.574291   4.550726
                   16         17         18         19         20
    16  H    0.000000
    17  H    1.787089   0.000000
    18  H    2.174915   2.845280   0.000000
    19  H    6.239133   5.605715   4.807722   0.000000
    20  H    5.179447   4.720920   3.441762   1.788951   0.000000
    21  H    3.573043   2.401391   3.979536   4.381478   4.316331
    22  H    4.340856   5.070386   3.434458   4.577187   4.300269
    23  H    2.261275   2.264084   4.355338   7.662027   6.867594
    24  H    6.817243   6.746176   4.769682   2.840303   2.249530
                   21         22         23         24
    21  H    0.000000
    22  H    4.624358   0.000000
    23  H    3.836112   6.086707   0.000000
    24  H    6.391482   4.826522   8.767544   0.000000
 Stoichiometry    C6H12O6
 Framework group  C1[X(C6H12O6)]
 Deg. of freedom    66
 Full point group                 C1      NOp   1
 Largest Abelian subgroup         C1      NOp   1
 Largest concise Abelian subgroup C1      NOp   1
                         Standard orientation:                         
 ---------------------------------------------------------------------
 Center     Atomic      Atomic             Coordinates (Angstroms)
 Number     Number       Type             X           Y           Z
 ---------------------------------------------------------------------
      1          8           0       -0.290301   -0.221358   -1.597912
      2          8           0       -2.054859    0.145287    1.601547
      3          8           0        0.468395    2.036044    0.014324
      4          8           0       -4.210171   -0.284678   -0.106061
      5          8           0        2.857128    1.053590   -0.498633
      6          8           0        3.896686   -1.307011    0.170362
      7          6           0       -0.434398   -0.177310   -0.181319
      8          6           0       -1.878334    0.212065    0.186739
      9          6           0        0.665099    0.694588    0.443907
     10          6           0       -2.901902   -0.721057   -0.460809
     11          6           0        2.098161    0.291083    0.101589
     12          6           0        2.558480   -1.078103    0.563851
     13          1           0       -0.264796   -1.200001    0.179599
     14          1           0       -2.093011    1.241338   -0.121644
     15          1           0        0.581819    0.692823    1.535994
     16          1           0       -2.832297   -0.707770   -1.551900
     17          1           0       -2.783708   -1.748045   -0.099607
     18          1           0       -0.713528   -1.036033   -1.917026
     19          1           0        2.503710   -1.123319    1.654522
     20          1           0        1.930473   -1.857870    0.127374
     21          1           0       -1.856892   -0.763603    1.884975
     22          1           0        0.475133    2.040262   -0.958385
     23          1           0       -4.838204   -0.897243   -0.525352
     24          1           0        3.913645   -1.343121   -0.801305
 ---------------------------------------------------------------------
 Rotational constants (GHZ):      1.8400094      0.4216893      0.4051558
 Standard basis: 6-311G(d,p) (5D, 7F)
 There are   288 symmetry adapted basis functions of A   symmetry.
 Integral buffers will be    131072 words long.
 Raffenetti 2 integral format.
 Two-electron integral symmetry is turned on.
   288 basis functions,   480 primitive gaussians,   300 cartesian basis functions
    48 alpha electrons       48 beta electrons
       nuclear repulsion energy       777.7625561619 Hartrees.
 NAtoms=   24 NActive=   24 NUniq=   24 SFac= 1.00D+00 NAtFMM=   50 NAOKFM=F Big=F
 One-electron integrals computed using PRISM.
 NBasis=   288 RedAO= T  NBF=   288
 NBsUse=   288 1.00D-06 NBFU=   288
 Harris functional with IExCor=  402 diagonalized for initial guess.
 ExpMin= 1.03D-01 ExpMax= 8.59D+03 ExpMxC= 1.30D+03 IAcc=1 IRadAn=         1 AccDes= 0.00D+00
 HarFok:  IExCor=  402 AccDes= 0.00D+00 IRadAn=         1 IDoV= 1
 ScaDFX=  1.000000  1.000000  1.000000  1.000000
 FoFCou: FMM=F IPFlag=           0 FMFlag=      100000 FMFlg1=           0
         NFxFlg=           0 DoJE=T BraDBF=F KetDBF=T FulRan=T
         Omega=  0.000000  0.000000  1.000000  0.000000  0.000000 ICntrl=     500 IOpCl=  0
         NMat0=    1 NMatS0=    1 NMatT0=    0 NMatD0=    1 NMtDS0=    0 NMtDT0=    0
         I1Cent=           4 NGrid=           0.
 Petite list used in FoFCou.
 Initial guess orbital symmetries:
       Occupied  (A) (A) (A) (A) (A) (A) (A) (A) (A) (A) (A) (A)
                 (A) (A) (A) (A) (A) (A) (A) (A) (A) (A) (A) (A)
                 (A) (A) (A) (A) (A) (A) (A) (A) (A) (A) (A) (A)
                 (A) (A) (A) (A) (A) (A) (A) (A) (A) (A) (A) (A)
       Virtual   (A) (A) (A) (A) (A) (A) (A) (A) (A) (A) (A) (A)
                 (A) (A) (A) (A) (A) (A) (A) (A) (A) (A) (A) (A)
                 (A) (A) (A) (A) (A) (A) (A) (A) (A) (A) (A) (A)
                 (A) (A) (A) (A) (A) (A) (A) (A) (A) (A) (A) (A)
                 (A) (A) (A) (A) (A) (A) (A) (A) (A) (A) (A) (A)
                 (A) (A) (A) (A) (A) (A) (A) (A) (A) (A) (A) (A)
                 (A) (A) (A) (A) (A) (A) (A) (A) (A) (A) (A) (A)
                 (A) (A) (A) (A) (A) (A) (A) (A) (A) (A) (A) (A)
                 (A) (A) (A) (A) (A) (A) (A) (A) (A) (A) (A) (A)
                 (A) (A) (A) (A) (A) (A) (A) (A) (A) (A) (A) (A)
                 (A) (A) (A) (A) (A) (A) (A) (A) (A) (A) (A) (A)
                 (A) (A) (A) (A) (A) (A) (A) (A) (A) (A) (A) (A)
                 (A) (A) (A) (A) (A) (A) (A) (A) (A) (A) (A) (A)
                 (A) (A) (A) (A) (A) (A) (A) (A) (A) (A) (A) (A)
                 (A) (A) (A) (A) (A) (A) (A) (A) (A) (A) (A) (A)
                 (A) (A) (A) (A) (A) (A) (A) (A) (A) (A) (A) (A)
                 (A) (A) (A) (A) (A) (A) (A) (A) (A) (A) (A) (A)
                 (A) (A) (A) (A) (A) (A) (A) (A) (A) (A) (A) (A)
                 (A) (A) (A) (A) (A) (A) (A) (A) (A) (A) (A) (A)
                 (A) (A) (A) (A) (A) (A) (A) (A) (A) (A) (A) (A)
 The electronic state of the initial guess is 1-A.
 Requested convergence on RMS density matrix=1.00D-08 within 128 cycles.
 Requested convergence on MAX density matrix=1.00D-06.
 Requested convergence on             energy=1.00D-06.
 No special actions if energy rises.
 Keep R1 ints in memory in canonical form, NReq=1033417287.
 Integral accuracy reduced to 1.0D-05 until final iterations.
 Initial convergence to 1.0D-05 achieved.  Increase integral accuracy.
 SCF Done:  E(RB3LYP) =  -687.337002320     A.U. after   14 cycles
             Convg  =    0.4678D-08             -V/T =  2.0032

 **********************************************************************

            Population analysis using the SCF density.

 **********************************************************************

 Orbital symmetries:
       Occupied  (A) (A) (A) (A) (A) (A) (A) (A) (A) (A) (A) (A)
                 (A) (A) (A) (A) (A) (A) (A) (A) (A) (A) (A) (A)
                 (A) (A) (A) (A) (A) (A) (A) (A) (A) (A) (A) (A)
                 (A) (A) (A) (A) (A) (A) (A) (A) (A) (A) (A) (A)
       Virtual   (A) (A) (A) (A) (A) (A) (A) (A) (A) (A) (A) (A)
                 (A) (A) (A) (A) (A) (A) (A) (A) (A) (A) (A) (A)
                 (A) (A) (A) (A) (A) (A) (A) (A) (A) (A) (A) (A)
                 (A) (A) (A) (A) (A) (A) (A) (A) (A) (A) (A) (A)
                 (A) (A) (A) (A) (A) (A) (A) (A) (A) (A) (A) (A)
                 (A) (A) (A) (A) (A) (A) (A) (A) (A) (A) (A) (A)
                 (A) (A) (A) (A) (A) (A) (A) (A) (A) (A) (A) (A)
                 (A) (A) (A) (A) (A) (A) (A) (A) (A) (A) (A) (A)
                 (A) (A) (A) (A) (A) (A) (A) (A) (A) (A) (A) (A)
                 (A) (A) (A) (A) (A) (A) (A) (A) (A) (A) (A) (A)
                 (A) (A) (A) (A) (A) (A) (A) (A) (A) (A) (A) (A)
                 (A) (A) (A) (A) (A) (A) (A) (A) (A) (A) (A) (A)
                 (A) (A) (A) (A) (A) (A) (A) (A) (A) (A) (A) (A)
                 (A) (A) (A) (A) (A) (A) (A) (A) (A) (A) (A) (A)
                 (A) (A) (A) (A) (A) (A) (A) (A) (A) (A) (A) (A)
                 (A) (A) (A) (A) (A) (A) (A) (A) (A) (A) (A) (A)
                 (A) (A) (A) (A) (A) (A) (A) (A) (A) (A) (A) (A)
                 (A) (A) (A) (A) (A) (A) (A) (A) (A) (A) (A) (A)
                 (A) (A) (A) (A) (A) (A) (A) (A) (A) (A) (A) (A)
                 (A) (A) (A) (A) (A) (A) (A) (A) (A) (A) (A) (A)
 The electronic state is 1-A.
 Alpha  occ. eigenvalues --  -19.15035 -19.12937 -19.12470 -19.12211 -19.12144
 Alpha  occ. eigenvalues --  -19.11673 -10.26705 -10.25414 -10.24430 -10.23921
 Alpha  occ. eigenvalues --  -10.23888 -10.23620  -1.06731  -1.05484  -1.04300
 Alpha  occ. eigenvalues --   -1.02845  -1.02353  -1.01292  -0.79590  -0.76389
 Alpha  occ. eigenvalues --   -0.72134  -0.66567  -0.62264  -0.57705  -0.56380
 Alpha  occ. eigenvalues --   -0.53357  -0.51882  -0.51259  -0.50507  -0.49831
 Alpha  occ. eigenvalues --   -0.47963  -0.47628  -0.44916  -0.43940  -0.42048
 Alpha  occ. eigenvalues --   -0.41972  -0.39327  -0.37684  -0.37061  -0.35485
 Alpha  occ. eigenvalues --   -0.34760  -0.34002  -0.31836  -0.29648  -0.28871
 Alpha  occ. eigenvalues --   -0.28512  -0.28337  -0.25782
 Alpha virt. eigenvalues --   -0.03680  -0.00689   0.01290   0.02649   0.03530
 Alpha virt. eigenvalues --    0.05615   0.06039   0.07690   0.09047   0.10136
 Alpha virt. eigenvalues --    0.11484   0.12609   0.13112   0.14278   0.15853
 Alpha virt. eigenvalues --    0.16566   0.19624   0.21091   0.22361   0.24379
 Alpha virt. eigenvalues --    0.25261   0.27345   0.28824   0.31284   0.34051
 Alpha virt. eigenvalues --    0.35624   0.36147   0.36931   0.37744   0.38830
 Alpha virt. eigenvalues --    0.40157   0.41137   0.41986   0.44979   0.45718
 Alpha virt. eigenvalues --    0.45831   0.46991   0.48408   0.49006   0.49566
 Alpha virt. eigenvalues --    0.51330   0.53261   0.53939   0.55188   0.56667
 Alpha virt. eigenvalues --    0.57523   0.58720   0.59170   0.59984   0.61554
 Alpha virt. eigenvalues --    0.61878   0.62817   0.65710   0.67169   0.71190
 Alpha virt. eigenvalues --    0.74575   0.76821   0.77980   0.78891   0.79513
 Alpha virt. eigenvalues --    0.82598   0.83399   0.84927   0.85722   0.86868
 Alpha virt. eigenvalues --    0.87352   0.88723   0.91293   0.91774   0.93683
 Alpha virt. eigenvalues --    0.94896   0.98799   1.01514   1.04474   1.05946
 Alpha virt. eigenvalues --    1.06919   1.08834   1.10344   1.11886   1.13577
 Alpha virt. eigenvalues --    1.15501   1.20002   1.21597   1.25020   1.27645
 Alpha virt. eigenvalues --    1.28411   1.31234   1.33611   1.35247   1.36833
 Alpha virt. eigenvalues --    1.38439   1.39793   1.41283   1.42414   1.43352
 Alpha virt. eigenvalues --    1.45528   1.46466   1.46834   1.48590   1.49448
 Alpha virt. eigenvalues --    1.50679   1.51800   1.53192   1.56622   1.56946
 Alpha virt. eigenvalues --    1.58880   1.59493   1.60406   1.61630   1.62632
 Alpha virt. eigenvalues --    1.63774   1.67142   1.68322   1.70527   1.72573
 Alpha virt. eigenvalues --    1.73386   1.75109   1.76321   1.79050   1.81074
 Alpha virt. eigenvalues --    1.82885   1.87116   1.90238   1.91639   1.92271
 Alpha virt. eigenvalues --    1.93638   1.94297   1.95635   1.97592   1.98494
 Alpha virt. eigenvalues --    2.01094   2.03739   2.05875   2.07259   2.10434
 Alpha virt. eigenvalues --    2.11252   2.15089   2.15704   2.18343   2.20384
 Alpha virt. eigenvalues --    2.24267   2.28842   2.34006   2.36677   2.37887
 Alpha virt. eigenvalues --    2.38076   2.39253   2.42907   2.45322   2.46959
 Alpha virt. eigenvalues --    2.50075   2.51053   2.53075   2.54211   2.55026
 Alpha virt. eigenvalues --    2.58207   2.61365   2.70966   2.71017   2.73786
 Alpha virt. eigenvalues --    2.77976   2.78877   2.82151   2.84382   2.85359
 Alpha virt. eigenvalues --    2.88005   2.89363   2.89934   2.93459   2.93844
 Alpha virt. eigenvalues --    2.99313   3.01986   3.03598   3.07445   3.10435
 Alpha virt. eigenvalues --    3.11487   3.11819   3.13953   3.14851   3.15103
 Alpha virt. eigenvalues --    3.17796   3.20121   3.21146   3.23902   3.25136
 Alpha virt. eigenvalues --    3.27723   3.30884   3.31988   3.35152   3.39400
 Alpha virt. eigenvalues --    3.46867   3.48548   3.58597   3.66678   3.69736
 Alpha virt. eigenvalues --    3.73136   3.77992   3.78987   3.79937   3.85222
 Alpha virt. eigenvalues --    3.88929   3.90164   3.92389   3.92746   3.95673
 Alpha virt. eigenvalues --    4.03091   4.05174   4.13924   4.17241   4.29743
 Alpha virt. eigenvalues --    4.84909   4.85517   4.89354   4.90247   4.93022
 Alpha virt. eigenvalues --    4.96010   5.08091   5.22558   5.24349   5.25036
 Alpha virt. eigenvalues --    5.25949   5.27815   5.50802   5.56166   5.60362
 Alpha virt. eigenvalues --    5.62763   5.63729   5.66775  23.66611  23.74815
 Alpha virt. eigenvalues --   23.76550  23.78134  23.78640  23.82074  49.85276
 Alpha virt. eigenvalues --   49.86941  49.88829  49.90313  49.91995  49.95011
          Condensed to atoms (all electrons):
              1          2          3          4          5          6
     1  O    7.964439   0.002012  -0.002382   0.000060  -0.000423   0.000001
     2  O    0.002012   7.895447  -0.000193   0.000773   0.000000   0.000000
     3  O   -0.002382  -0.000193   7.867442   0.000000  -0.002520  -0.000022
     4  O    0.000060   0.000773   0.000000   7.914567   0.000000   0.000000
     5  O   -0.000423   0.000000  -0.002520   0.000000   7.776233  -0.002738
     6  O    0.000001   0.000000  -0.000022   0.000000  -0.002738   7.858075
     7  C    0.213917  -0.033368  -0.051111   0.003273   0.001226  -0.000279
     8  C   -0.043356   0.227359  -0.004665  -0.052773  -0.000189   0.000000
     9  C   -0.064873   0.000074   0.268395  -0.000058  -0.099090   0.005878
    10  C    0.000679  -0.030035   0.000187   0.283239   0.000001   0.000000
    11  C    0.015545   0.000471  -0.028209   0.000000   0.675222  -0.021498
    12  C   -0.000665  -0.000070   0.004274   0.000000  -0.097470   0.275977
    13  H   -0.035525   0.000843   0.006894  -0.000356   0.000148  -0.000191
    14  H    0.003054  -0.026514   0.019073   0.006805  -0.000022   0.000000
    15  H    0.003314   0.020130  -0.019071  -0.000003   0.001100  -0.000158
    16  H    0.014059   0.006416  -0.000054  -0.034247   0.000001   0.000000
    17  H   -0.000629  -0.003984  -0.000007  -0.039960   0.000000   0.000000
    18  H    0.320988  -0.000197  -0.000249  -0.000286  -0.000040   0.000005
    19  H    0.000073  -0.000037  -0.000115   0.000000   0.001091  -0.023252
    20  H    0.003109  -0.000102  -0.000107   0.000000   0.001206  -0.031346
    21  H   -0.000098   0.309647  -0.000123   0.001781   0.000001   0.000000
    22  H    0.012851  -0.000123   0.324304  -0.000005   0.010905  -0.000015
    23  H    0.000017  -0.000217  -0.000001   0.303457   0.000000   0.000000
    24  H    0.000045   0.000000  -0.000002   0.000000   0.011222   0.317329
              7          8          9         10         11         12
     1  O    0.213917  -0.043356  -0.064873   0.000679   0.015545  -0.000665
     2  O   -0.033368   0.227359   0.000074  -0.030035   0.000471  -0.000070
     3  O   -0.051111  -0.004665   0.268395   0.000187  -0.028209   0.004274
     4  O    0.003273  -0.052773  -0.000058   0.283239   0.000000   0.000000
     5  O    0.001226  -0.000189  -0.099090   0.000001   0.675222  -0.097470
     6  O   -0.000279   0.000000   0.005878   0.000000  -0.021498   0.275977
     7  C    5.310524   0.195178   0.280230  -0.044369  -0.073290   0.011107
     8  C    0.195178   5.199588  -0.055698   0.295746   0.004951  -0.000633
     9  C    0.280230  -0.055698   5.327924   0.009994   0.167450  -0.145851
    10  C   -0.044369   0.295746   0.009994   4.827737  -0.000065   0.000017
    11  C   -0.073290   0.004951   0.167450  -0.000065   5.016915   0.214186
    12  C    0.011107  -0.000633  -0.145851   0.000017   0.214186   5.015617
    13  H    0.333914  -0.042379  -0.046857  -0.014810  -0.005862   0.001041
    14  H   -0.029561   0.362353  -0.015420  -0.040232   0.000628  -0.000149
    15  H   -0.037417  -0.013860   0.371718   0.001031  -0.025928   0.005229
    16  H   -0.001139  -0.051103  -0.000625   0.378848  -0.000090   0.000007
    17  H    0.002386  -0.038571  -0.000804   0.365116   0.000006  -0.000010
    18  H   -0.027714  -0.002724   0.007042   0.006115   0.000156  -0.000018
    19  H   -0.002322  -0.000057   0.011513  -0.000007  -0.034625   0.370034
    20  H    0.002150   0.001175   0.001101  -0.000043  -0.052635   0.399019
    21  H    0.000895  -0.061017  -0.003430  -0.003990  -0.000099   0.000014
    22  H   -0.005743  -0.003244  -0.076101  -0.000238   0.003147   0.001972
    23  H   -0.000793   0.009741   0.000029  -0.031856   0.000000   0.000000
    24  H   -0.000394   0.000003   0.002303   0.000000  -0.000092  -0.058331
             13         14         15         16         17         18
     1  O   -0.035525   0.003054   0.003314   0.014059  -0.000629   0.320988
     2  O    0.000843  -0.026514   0.020130   0.006416  -0.003984  -0.000197
     3  O    0.006894   0.019073  -0.019071  -0.000054  -0.000007  -0.000249
     4  O   -0.000356   0.006805  -0.000003  -0.034247  -0.039960  -0.000286
     5  O    0.000148  -0.000022   0.001100   0.000001   0.000000  -0.000040
     6  O   -0.000191   0.000000  -0.000158   0.000000   0.000000   0.000005
     7  C    0.333914  -0.029561  -0.037417  -0.001139   0.002386  -0.027714
     8  C   -0.042379   0.362353  -0.013860  -0.051103  -0.038571  -0.002724
     9  C   -0.046857  -0.015420   0.371718  -0.000625  -0.000804   0.007042
    10  C   -0.014810  -0.040232   0.001031   0.378848   0.365116   0.006115
    11  C   -0.005862   0.000628  -0.025928  -0.000090   0.000006   0.000156
    12  C    0.001041  -0.000149   0.005229   0.000007  -0.000010  -0.000018
    13  H    0.704620   0.013325   0.001774   0.001292   0.010228  -0.018943
    14  H    0.013325   0.555423  -0.001821  -0.004181   0.010303  -0.002131
    15  H    0.001774  -0.001821   0.539620  -0.000139  -0.000207  -0.000389
    16  H    0.001292  -0.004181  -0.000139   0.650320  -0.046544   0.004799
    17  H    0.010228   0.010303  -0.000207  -0.046544   0.674463  -0.001841
    18  H   -0.018943  -0.002131  -0.000389   0.004799  -0.001841   0.465380
    19  H   -0.000378   0.000007   0.001367   0.000000   0.000006   0.000018
    20  H   -0.000565  -0.000046  -0.000222  -0.000026  -0.000088   0.000392
    21  H    0.009656   0.007453   0.000330   0.000677   0.004476   0.000039
    22  H    0.001550   0.000703   0.008272   0.000098  -0.000002  -0.000662
    23  H   -0.000044  -0.000524   0.000004  -0.005384  -0.007416  -0.000039
    24  H   -0.000078   0.000001  -0.000031   0.000000   0.000000   0.000008
             19         20         21         22         23         24
     1  O    0.000073   0.003109  -0.000098   0.012851   0.000017   0.000045
     2  O   -0.000037  -0.000102   0.309647  -0.000123  -0.000217   0.000000
     3  O   -0.000115  -0.000107  -0.000123   0.324304  -0.000001  -0.000002
     4  O    0.000000   0.000000   0.001781  -0.000005   0.303457   0.000000
     5  O    0.001091   0.001206   0.000001   0.010905   0.000000   0.011222
     6  O   -0.023252  -0.031346   0.000000  -0.000015   0.000000   0.317329
     7  C   -0.002322   0.002150   0.000895  -0.005743  -0.000793  -0.000394
     8  C   -0.000057   0.001175  -0.061017  -0.003244   0.009741   0.000003
     9  C    0.011513   0.001101  -0.003430  -0.076101   0.000029   0.002303
    10  C   -0.000007  -0.000043  -0.003990  -0.000238  -0.031856   0.000000
    11  C   -0.034625  -0.052635  -0.000099   0.003147   0.000000  -0.000092
    12  C    0.370034   0.399019   0.000014   0.001972   0.000000  -0.058331
    13  H   -0.000378  -0.000565   0.009656   0.001550  -0.000044  -0.000078
    14  H    0.000007  -0.000046   0.007453   0.000703  -0.000524   0.000001
    15  H    0.001367  -0.000222   0.000330   0.008272   0.000004  -0.000031
    16  H    0.000000  -0.000026   0.000677   0.000098  -0.005384   0.000000
    17  H    0.000006  -0.000088   0.004476  -0.000002  -0.007416   0.000000
    18  H    0.000018   0.000392   0.000039  -0.000662  -0.000039   0.000008
    19  H    0.564280  -0.027481   0.000031  -0.000052   0.000000   0.009451
    20  H   -0.027481   0.592781  -0.000077  -0.000132   0.000000  -0.007185
    21  H    0.000031  -0.000077   0.512026   0.000058  -0.000147   0.000000
    22  H   -0.000052  -0.000132   0.000058   0.478139   0.000000  -0.000049
    23  H    0.000000   0.000000  -0.000147   0.000000   0.496685   0.000000
    24  H    0.009451  -0.007185   0.000000  -0.000049   0.000000   0.487259
 Mulliken atomic charges:
              1
     1  O   -0.406210
     2  O   -0.368330
     3  O   -0.381739
     4  O   -0.386267
     5  O   -0.275866
     6  O   -0.377764
     7  C   -0.047297
     8  C    0.074173
     9  C    0.055157
    10  C   -0.003066
    11  C    0.143715
    12  C    0.004702
    13  H    0.080703
    14  H    0.141473
    15  H    0.145356
    16  H    0.087016
    17  H    0.073080
    18  H    0.250290
    19  H    0.130456
    20  H    0.119124
    21  H    0.221897
    22  H    0.244366
    23  H    0.236486
    24  H    0.238542
 Sum of Mulliken atomic charges =   0.00000
 Mulliken charges with hydrogens summed into heavy atoms:
              1
     1  O   -0.155920
     2  O   -0.146433
     3  O   -0.137372
     4  O   -0.149780
     5  O   -0.275866
     6  O   -0.139222
     7  C    0.033406
     8  C    0.215646
     9  C    0.200513
    10  C    0.157030
    11  C    0.143715
    12  C    0.254282
 Sum of Mulliken charges with hydrogens summed into heavy atoms =   0.00000
 Electronic spatial extent (au):  <R**2>=           2791.3228
 Charge=              0.0000 electrons
 Dipole moment (field-independent basis, Debye):
    X=             -3.0734    Y=             -6.0247    Z=             -1.9090  Tot=              7.0276
 Quadrupole moment (field-independent basis, Debye-Ang):
   XX=            -84.6587   YY=            -71.3714   ZZ=            -67.1095
   XY=              5.5568   XZ=              6.2606   YZ=              0.5900
 Traceless Quadrupole moment (field-independent basis, Debye-Ang):
   XX=            -10.2788   YY=              3.0084   ZZ=              7.2704
   XY=              5.5568   XZ=              6.2606   YZ=              0.5900
 Octapole moment (field-independent basis, Debye-Ang**2):
  XXX=            -81.1014  YYY=             -9.4627  ZZZ=             -3.1667  XYY=            -20.6968
  XXY=            -37.7404  XXZ=            -43.3142  XZZ=              7.7323  YZZ=             -9.7727
  YYZ=            -12.0546  XYZ=              8.8616
 Hexadecapole moment (field-independent basis, Debye-Ang**3):
 XXXX=          -2651.2881 YYYY=           -470.4208 ZZZZ=           -308.9262 XXXY=            161.8212
 XXXZ=             34.4232 YYYX=              5.9919 YYYZ=             -7.9083 ZZZX=              3.6784
 ZZZY=             -2.4661 XXYY=           -495.9047 XXZZ=           -450.1352 YYZZ=           -107.8108
 XXYZ=             56.2972 YYXZ=            -12.7449 ZZXY=             10.5288
 N-N= 7.777625561619D+02 E-N=-3.171078397184D+03  KE= 6.851651722755D+02
 Calling FoFJK, ICntrl=      2127 FMM=F ISym2X=0 I1Cent= 0 IOpClX= 0 NMat=1 NMatS=1 NMatT=0.
 ***** Axes restored to original set *****
 -------------------------------------------------------------------
 Center     Atomic                   Forces (Hartrees/Bohr)
 Number     Number              X              Y              Z
 -------------------------------------------------------------------
      1        8           0.004801089    0.000341273    0.009371033
      2        8           0.007182928   -0.000408174   -0.003633027
      3        8          -0.006520464   -0.002268854   -0.000708344
      4        8          -0.006882830    0.002265696    0.001896614
      5        8          -0.027672668    0.027564565   -0.017763666
      6        8           0.002420508    0.007767905    0.001115765
      7        6          -0.001215029    0.023059992   -0.004583037
      8        6          -0.003507045    0.006488456   -0.010642579
      9        6          -0.006798414   -0.027794154    0.019003304
     10        6          -0.013316800   -0.003114141    0.005870483
     11        6           0.019754853   -0.018166350    0.020268397
     12        6           0.017079565   -0.001658345    0.013416439
     13        1          -0.002596295    0.003320211   -0.006454468
     14        1           0.002178457    0.002700737   -0.003328262
     15        1          -0.005363087    0.000468329    0.001377597
     16        1           0.007230360    0.000903344    0.002945507
     17        1           0.008938944    0.004201459   -0.000474642
     18        1           0.005738629   -0.010898962   -0.002636077
     19        1           0.000479498    0.002537872   -0.000299068
     20        1          -0.009550272    0.001121052   -0.003609828
     21        1          -0.003577694   -0.007488580    0.002884228
     22        1           0.004391591    0.001528233   -0.008620667
     23        1           0.006289111   -0.007721076   -0.004826630
     24        1           0.000515066   -0.004750487   -0.010569075
 -------------------------------------------------------------------
 Cartesian Forces:  Max     0.027794154 RMS     0.009783508

 GradGradGradGradGradGradGradGradGradGradGradGradGradGradGradGradGradGrad
 Berny optimization.
 Internal  Forces:  Max     0.042750696 RMS     0.006601588
 Search for a local minimum.
 Step number   1 out of a maximum of  125
 All quantities printed in internal units (Hartrees-Bohrs-Radians)
 Mixed Optimization -- RFO/linear search
 Second derivative matrix not updated -- first step.
 ITU=  0
     Eigenvalues ---    0.00235   0.00287   0.00383   0.00400   0.00474
     Eigenvalues ---    0.00546   0.01330   0.01367   0.01374   0.01398
     Eigenvalues ---    0.01513   0.03721   0.04234   0.04406   0.04671
     Eigenvalues ---    0.04839   0.05234   0.05249   0.05567   0.06326
     Eigenvalues ---    0.07335   0.07405   0.07684   0.08492   0.11472
     Eigenvalues ---    0.11573   0.13692   0.13979   0.16000   0.16000
     Eigenvalues ---    0.16000   0.16000   0.16000   0.16561   0.17760
     Eigenvalues ---    0.18243   0.19669   0.19782   0.20268   0.22028
     Eigenvalues ---    0.22147   0.24991   0.25000   0.28507   0.28855
     Eigenvalues ---    0.29519   0.29643   0.30691   0.33939   0.34161
     Eigenvalues ---    0.34212   0.34235   0.34424   0.34470   0.34558
     Eigenvalues ---    0.41374   0.41778   0.41860   0.42126   0.43452
     Eigenvalues ---    0.52821   0.52872   0.52885   0.52900   0.52984
     Eigenvalues ---    0.90276
 RFO step:  Lambda=-2.15600878D-02 EMin= 2.34970985D-03
 Linear search not attempted -- first point.
 Iteration  1 RMS(Cart)=  0.07297717 RMS(Int)=  0.00274650
 Iteration  2 RMS(Cart)=  0.00445903 RMS(Int)=  0.00107116
 Iteration  3 RMS(Cart)=  0.00001287 RMS(Int)=  0.00107114
 Iteration  4 RMS(Cart)=  0.00000001 RMS(Int)=  0.00107114
 Variable       Old X    -DE/DX   Delta X   Delta X   Delta X     New X
                                 (Linear)    (Quad)   (Total)
    R1        2.69207   0.00740   0.00000   0.01683   0.01683   2.70891
    R2        1.83668  -0.01251   0.00000  -0.02268  -0.02268   1.81400
    R3        2.69728  -0.00003   0.00000  -0.00007  -0.00007   2.69721
    R4        1.83761  -0.00857   0.00000  -0.01557  -0.01557   1.82204
    R5        2.68763  -0.00188   0.00000  -0.00423  -0.00423   2.68339
    R6        1.83821  -0.00858   0.00000  -0.01560  -0.01560   1.82261
    R7        2.69101   0.00294   0.00000   0.00667   0.00667   2.69768
    R8        1.83748  -0.01101   0.00000  -0.02000  -0.02000   1.81747
    R9        2.32806  -0.04275   0.00000  -0.04625  -0.04625   2.28181
   R10        2.67116   0.00067   0.00000   0.00147   0.00147   2.67263
   R11        1.83773  -0.01074   0.00000  -0.01952  -0.01952   1.81821
   R12        2.91044  -0.00152   0.00000  -0.00495  -0.00495   2.90550
   R13        2.90306  -0.00575   0.00000  -0.01856  -0.01856   2.88450
   R14        2.07433   0.00484   0.00000   0.01341   0.01341   2.08775
   R15        2.88932  -0.00136   0.00000  -0.00428  -0.00428   2.88504
   R16        2.07060  -0.00392   0.00000  -0.01080  -0.01080   2.05980
   R17        2.88681   0.00722   0.00000   0.02269   0.02269   2.90950
   R18        2.06974  -0.00096   0.00000  -0.00263  -0.00263   2.06711
   R19        2.06621   0.00340   0.00000   0.00930   0.00930   2.07551
   R20        2.06935   0.00507   0.00000   0.01393   0.01393   2.08328
   R21        2.86607   0.00781   0.00000   0.02378   0.02378   2.88985
   R22        2.06543   0.00036   0.00000   0.00098   0.00098   2.06641
   R23        2.06399   0.00484   0.00000   0.01319   0.01319   2.07718
    A1        1.88426   0.00276   0.00000   0.01520   0.01520   1.89947
    A2        1.88332  -0.00016   0.00000  -0.00086  -0.00086   1.88246
    A3        1.88091  -0.00403   0.00000  -0.02217  -0.02217   1.85874
    A4        1.86807   0.00190   0.00000   0.01046   0.01046   1.87853
    A5        1.87619   0.00008   0.00000   0.00043   0.00043   1.87662
    A6        1.91802   0.01438   0.00000   0.05166   0.04592   1.96394
    A7        1.92822  -0.01198   0.00000  -0.08246  -0.08199   1.84622
    A8        1.85721   0.00286   0.00000   0.06675   0.06680   1.92401
    A9        2.01557  -0.00930   0.00000  -0.06463  -0.06514   1.95043
   A10        1.87740  -0.00232   0.00000  -0.00009  -0.00103   1.87637
   A11        1.85915   0.00729   0.00000   0.04219   0.04354   1.90270
   A12        1.91878  -0.00118   0.00000   0.00512   0.00413   1.92291
   A13        1.88437   0.00729   0.00000   0.05692   0.05669   1.94105
   A14        1.87412  -0.00320   0.00000  -0.03395  -0.03407   1.84004
   A15        1.95210  -0.00243   0.00000   0.00120   0.00049   1.95259
   A16        1.93255  -0.00037   0.00000  -0.02553  -0.02570   1.90685
   A17        1.89962   0.00004   0.00000  -0.00328  -0.00306   1.89656
   A18        1.88957   0.00877   0.00000   0.05412   0.05527   1.94484
   A19        1.88725   0.00707   0.00000   0.05716   0.05777   1.94501
   A20        1.86730  -0.00515   0.00000  -0.02513  -0.02482   1.84248
   A21        2.01561  -0.01458   0.00000  -0.05924  -0.06094   1.95467
   A22        1.92887  -0.00211   0.00000  -0.04705  -0.04749   1.88139
   A23        1.86956   0.00653   0.00000   0.02294   0.02039   1.88995
   A24        1.89918  -0.00689   0.00000  -0.02242  -0.02205   1.87712
   A25        1.87901   0.00656   0.00000   0.04746   0.04691   1.92592
   A26        1.88009   0.00792   0.00000   0.05928   0.05879   1.93887
   A27        1.95260  -0.00291   0.00000  -0.03141  -0.03174   1.92086
   A28        1.93950  -0.00414   0.00000  -0.03735  -0.03763   1.90187
   A29        1.91100   0.00019   0.00000  -0.00924  -0.01191   1.89909
   A30        2.12189  -0.00200   0.00000  -0.00716  -0.00731   2.11458
   A31        2.11797  -0.00115   0.00000  -0.00399  -0.00414   2.11383
   A32        2.04303   0.00317   0.00000   0.01188   0.01174   2.05476
   A33        1.92697   0.01306   0.00000   0.06225   0.06153   1.98850
   A34        1.89497  -0.00825   0.00000  -0.04741  -0.04689   1.84808
   A35        1.89388   0.00497   0.00000   0.06109   0.06068   1.95455
   A36        1.90317   0.00016   0.00000  -0.00421  -0.00415   1.89902
   A37        1.92644  -0.00793   0.00000  -0.03446  -0.03667   1.88978
   A38        1.91817  -0.00204   0.00000  -0.03775  -0.03800   1.88017
    D1       -1.31906  -0.00543   0.00000  -0.05580  -0.05782  -1.37689
    D2        2.72001   0.00485   0.00000   0.05206   0.05204   2.77205
    D3        0.70866   0.00069   0.00000   0.00683   0.00887   0.71753
    D4       -1.02761  -0.00244   0.00000  -0.06173  -0.06194  -1.08955
    D5        1.10625  -0.00153   0.00000  -0.02105  -0.02043   1.08582
    D6       -3.13128   0.00062   0.00000  -0.01322  -0.01364   3.13826
    D7       -0.99132  -0.00005   0.00000  -0.08166  -0.08313  -1.07445
    D8        1.20419  -0.00786   0.00000  -0.08323  -0.08124   1.12295
    D9       -3.07046   0.00059   0.00000  -0.04122  -0.04174  -3.11220
   D10       -3.13543   0.00002   0.00000  -0.00575  -0.00571  -3.14114
   D11        1.02827   0.00363   0.00000   0.01697   0.01830   1.04657
   D12       -1.03108  -0.00427   0.00000  -0.02881  -0.03018  -1.06126
   D13       -1.14335   0.00303   0.00000   0.05873   0.05673  -1.08661
   D14        3.05434   0.00014   0.00000   0.05602   0.05590   3.11024
   D15        0.97003   0.00447   0.00000   0.09346   0.09557   1.06560
   D16        3.05545   0.01079   0.00000   0.11241   0.11305  -3.11468
   D17        0.96228   0.00398   0.00000   0.03659   0.03750   0.99978
   D18       -1.15971   0.00586   0.00000   0.05791   0.05869  -1.10103
   D19       -1.03249  -0.00065   0.00000  -0.00697  -0.00793  -1.04042
   D20       -3.12567  -0.00746   0.00000  -0.08279  -0.08348   3.07404
   D21        1.03553  -0.00558   0.00000  -0.06146  -0.06229   0.97323
   D22        1.04048   0.00116   0.00000   0.00634   0.00626   1.04674
   D23       -1.05269  -0.00565   0.00000  -0.06948  -0.06929  -1.12198
   D24        3.10850  -0.00377   0.00000  -0.04816  -0.04810   3.06040
   D25        1.14574   0.00246   0.00000  -0.02400  -0.02202   1.12372
   D26       -0.97232  -0.00350   0.00000  -0.09920  -0.09603  -1.06834
   D27       -3.09762   0.00021   0.00000  -0.04886  -0.04793   3.13763
   D28       -1.04427   0.00045   0.00000   0.02726   0.02512  -1.01915
   D29        3.12086  -0.00552   0.00000  -0.04794  -0.04888   3.07198
   D30        0.99555  -0.00180   0.00000   0.00240  -0.00078   0.99477
   D31       -3.12731   0.00383   0.00000   0.03658   0.03658  -3.09073
   D32        1.03782  -0.00213   0.00000  -0.03863  -0.03742   1.00040
   D33       -1.08749   0.00158   0.00000   0.01171   0.01068  -1.07681
   D34        1.05297  -0.00018   0.00000  -0.01356  -0.01376   1.03922
   D35        3.12687   0.00172   0.00000   0.01157   0.01101   3.13789
   D36       -1.01435  -0.00313   0.00000  -0.05001  -0.04983  -1.06418
   D37       -3.11698   0.00168   0.00000   0.03133   0.03156  -3.08542
   D38       -1.04308   0.00359   0.00000   0.05646   0.05634  -0.98674
   D39        1.09888  -0.00126   0.00000  -0.00513  -0.00451   1.09437
   D40       -0.97612  -0.00036   0.00000  -0.00244  -0.00250  -0.97862
   D41        1.09778   0.00155   0.00000   0.02269   0.02227   1.12005
   D42       -3.04345  -0.00330   0.00000  -0.03890  -0.03858  -3.08202
   D43       -0.04865  -0.00283   0.00000  -0.05155  -0.05073  -0.09937
   D44        3.06693  -0.00199   0.00000  -0.01994  -0.01915   3.04778
   D45        2.07066   0.00406   0.00000   0.02205   0.02193   2.09259
   D46       -1.09695   0.00490   0.00000   0.05365   0.05350  -1.04344
   D47       -2.05569  -0.00362   0.00000  -0.06209  -0.06275  -2.11844
   D48        1.05988  -0.00278   0.00000  -0.03048  -0.03117   1.02870
   D49       -0.02957   0.00549   0.00000   0.09935   0.09912   0.06955
   D50        2.05097   0.00336   0.00000   0.07619   0.07586   2.12683
   D51       -2.12345  -0.00401   0.00000   0.00537   0.00597  -2.11747
   D52        3.13798   0.00467   0.00000   0.06787   0.06761  -3.07760
   D53       -1.06467   0.00254   0.00000   0.04471   0.04435  -1.02032
   D54        1.04410  -0.00483   0.00000  -0.02611  -0.02554   1.01857
         Item               Value     Threshold  Converged?
 Maximum Force            0.042751     0.000450     NO 
 RMS     Force            0.006602     0.000300     NO 
 Maximum Displacement     0.209344     0.001800     NO 
 RMS     Displacement     0.074092     0.001200     NO 
 Predicted change in Energy=-1.299480D-02
 GradGradGradGradGradGradGradGradGradGradGradGradGradGradGradGradGradGrad

                          Input orientation:                          
 ---------------------------------------------------------------------
 Center     Atomic      Atomic             Coordinates (Angstroms)
 Number     Number       Type             X           Y           Z
 ---------------------------------------------------------------------
      1          8           0       -0.291344    0.238865    1.639353
      2          8           0       -2.040465   -0.076961   -1.614353
      3          8           0        0.302855   -2.017080    0.039097
      4          8           0       -4.244807    0.320809    0.085255
      5          8           0        2.730146   -0.965428    0.586617
      6          8           0        3.807702    1.408779   -0.256913
      7          6           0       -0.483441    0.280625    0.219404
      8          6           0       -1.914878   -0.100260   -0.192775
      9          6           0        0.548452   -0.678896   -0.367493
     10          6           0       -2.955771    0.799704    0.468597
     11          6           0        1.989475   -0.246695   -0.040154
     12          6           0        2.448752    1.127411   -0.529517
     13          1           0       -0.287119    1.298345   -0.163036
     14          1           0       -2.110289   -1.132232    0.098689
     15          1           0        0.427715   -0.675577   -1.454671
     16          1           0       -2.844614    0.764675    1.560709
     17          1           0       -2.800676    1.836860    0.128601
     18          1           0       -0.660920    1.036165    2.025605
     19          1           0        2.347497    1.166035   -1.617631
     20          1           0        1.777799    1.886899   -0.103805
     21          1           0       -1.876497    0.825717   -1.910893
     22          1           0        0.379531   -2.029697    1.000446
     23          1           0       -4.901517    0.887273    0.501002
     24          1           0        3.917415    1.408866    0.698967
 ---------------------------------------------------------------------
                    Distance matrix (angstroms):
                    1          2          3          4          5
     1  O    0.000000
     2  O    3.707529   0.000000
     3  O    2.828989   3.462529   0.000000
     4  O    4.248742   2.811763   5.113618   0.000000
     5  O    3.418768   5.328449   2.701388   7.110257   0.000000
     6  O    4.665480   6.184750   4.909999   8.132876   2.740352
     7  C    1.433492   2.432047   2.435205   3.763972   3.466214
     8  C    2.471348   1.427304   2.940460   2.383940   4.788760
     9  C    2.361138   2.935894   1.419990   4.917288   2.398378
    10  C    2.963846   2.438238   4.328670   1.427552   5.954769
    11  C    2.873786   4.329819   2.446474   6.261315   1.207481
    12  C    3.605778   4.772887   3.849159   6.769955   2.388496
    13  H    2.090723   2.659325   3.373570   4.084179   3.845847
    14  H    2.749930   2.013203   2.570947   2.582185   4.867824
    15  H    3.305485   2.544750   2.011607   5.019624   3.090641
    16  H    2.608036   3.381719   4.467664   2.081952   5.917775
    17  H    3.336571   2.697873   4.949017   2.094231   6.217120
    18  H    0.959930   4.048640   3.767942   4.137746   4.192421
    19  H    4.293142   4.560620   4.130077   6.860955   3.090026
    20  H    3.167960   4.551664   4.175756   6.225767   3.085355
    21  H    3.932093   0.964183   4.078423   3.138221   5.537772
    22  H    2.450438   4.062848   0.964484   5.267538   2.613296
    23  H    4.792700   3.686474   5.977801   0.961766   7.853796
    24  H    4.468432   6.561667   5.023703   8.257263   2.656973
                    6          7          8          9         10
     6  O    0.000000
     7  C    4.462457   0.000000
     8  C    5.918550   1.537523   0.000000
     9  C    3.872122   1.526412   2.536403   0.000000
    10  C    6.829488   2.538495   1.526698   3.894211   0.000000
    11  C    2.468508   2.541801   3.910078   1.539642   5.080280
    12  C    1.414294   3.142561   4.545529   2.626811   5.505678
    13  H    4.097386   1.104789   2.146294   2.156262   2.787348
    14  H    6.450257   2.158094   1.090002   2.737105   2.141039
    15  H    4.147708   2.132383   2.722336   1.093866   4.162138
    16  H    6.926177   2.758358   2.165001   4.161100   1.098313
    17  H    6.633441   2.792792   2.154148   4.218032   1.102426
    18  H    5.031631   1.965884   2.790177   3.182913   2.783259
    19  H    2.010641   3.488963   4.669214   2.864119   5.710622
    20  H    2.091064   2.792452   4.194351   2.857294   4.890432
    21  H    5.948591   2.603056   1.952136   3.244429   2.612945
    22  H    5.015619   2.586955   3.226580   1.929885   4.405975
    23  H    8.757677   4.468413   3.221267   5.736665   1.947985
    24  H    0.962156   4.568419   6.090017   4.104388   6.903973
                   11         12         13         14         15
    11  C    0.000000
    12  C    1.529241   0.000000
    13  H    2.754113   2.765596   0.000000
    14  H    4.196608   5.126937   3.049615   0.000000
    15  H    2.150325   2.862039   2.464890   3.010469   0.000000
    16  H    5.191729   5.702661   3.129996   2.504994   4.677069
    17  H    5.226397   5.337877   2.587086   3.048448   4.386525
    18  H    3.596899   4.025796   2.235758   3.242780   4.028339
    19  H    2.147655   1.093497   3.012400   5.300909   2.665268
    20  H    2.145014   1.099196   2.147974   4.926803   3.195912
    21  H    4.426678   4.550495   2.409254   2.815430   2.787726
    22  H    2.617989   4.073057   3.588033   2.796035   2.804204
    23  H    7.004607   7.426041   4.680021   3.468604   5.887943
    24  H    2.646533   1.935294   4.293411   6.568922   4.600117
                   16         17         18         19         20
    16  H    0.000000
    17  H    1.789537   0.000000
    18  H    2.249079   2.969561   0.000000
    19  H    6.100897   5.477501   4.726585   0.000000
    20  H    5.039513   4.584643   3.347459   1.770839   0.000000
    21  H    3.604580   2.456838   4.125280   4.247817   4.212548
    22  H    4.303199   5.081741   3.396027   4.576016   4.302819
    23  H    2.317080   2.335366   4.508797   7.557415   6.780731
    24  H    6.847088   6.755830   4.781216   2.808957   2.334719
                   21         22         23         24
    21  H    0.000000
    22  H    4.660359   0.000000
    23  H    3.869337   6.053728   0.000000
    24  H    6.381290   4.942796   8.836562   0.000000
 Stoichiometry    C6H12O6
 Framework group  C1[X(C6H12O6)]
 Deg. of freedom    66
 Full point group                 C1      NOp   1
 Largest Abelian subgroup         C1      NOp   1
 Largest concise Abelian subgroup C1      NOp   1
                         Standard orientation:                         
 ---------------------------------------------------------------------
 Center     Atomic      Atomic             Coordinates (Angstroms)
 Number     Number       Type             X           Y           Z
 ---------------------------------------------------------------------
      1          8           0        0.213601    0.013335    1.630060
      2          8           0        1.977811   -0.073703   -1.629657
      3          8           0       -0.358266    2.065546   -0.231277
      4          8           0        4.172522   -0.279781    0.115848
      5          8           0       -2.795091    1.102845    0.426434
      6          8           0       -3.886063   -1.348095   -0.132316
      7          6           0        0.411031   -0.199204    0.226227
      8          6           0        1.846752    0.120267   -0.221681
      9          6           0       -0.611710    0.689977   -0.476119
     10          6           0        2.878618   -0.700938    0.547526
     11          6           0       -2.057043    0.309476   -0.106352
     12          6           0       -2.524085   -1.110256   -0.430100
     13          1           0        0.209033   -1.254051   -0.032720
     14          1           0        2.048301    1.178388   -0.054766
     15          1           0       -0.486686    0.555869   -1.554511
     16          1           0        2.763378   -0.534821    1.627070
     17          1           0        2.717539   -1.770274    0.333240
     18          1           0        0.575990   -0.734453    2.110636
     19          1           0       -2.418788   -1.279400   -1.505293
     20          1           0       -1.860217   -1.817758    0.086574
     21          1           0        1.808639   -1.004273   -1.816922
     22          1           0       -0.438665    2.193548    0.721289
     23          1           0        4.823552   -0.796746    0.599481
     24          1           0       -3.999566   -1.233143    0.816181
 ---------------------------------------------------------------------
 Rotational constants (GHZ):      1.7900796      0.4309616      0.4131893
 Standard basis: 6-311G(d,p) (5D, 7F)
 There are   288 symmetry adapted basis functions of A   symmetry.
 Integral buffers will be    131072 words long.
 Raffenetti 2 integral format.
 Two-electron integral symmetry is turned on.
   288 basis functions,   480 primitive gaussians,   300 cartesian basis functions
    48 alpha electrons       48 beta electrons
       nuclear repulsion energy       780.1381575208 Hartrees.
 NAtoms=   24 NActive=   24 NUniq=   24 SFac= 1.00D+00 NAtFMM=   50 NAOKFM=F Big=F
 One-electron integrals computed using PRISM.
 NBasis=   288 RedAO= T  NBF=   288
 NBsUse=   288 1.00D-06 NBFU=   288
 Initial guess read from the read-write file.
 B after Tr=     0.000000    0.000000    0.000000
         Rot=    1.000000    0.000000    0.000000    0.000000 Ang=   0.00 deg.
 Initial guess orbital symmetries:
       Occupied  (A) (A) (A) (A) (A) (A) (A) (A) (A) (A) (A) (A)
                 (A) (A) (A) (A) (A) (A) (A) (A) (A) (A) (A) (A)
                 (A) (A) (A) (A) (A) (A) (A) (A) (A) (A) (A) (A)
                 (A) (A) (A) (A) (A) (A) (A) (A) (A) (A) (A) (A)
       Virtual   (A) (A) (A) (A) (A) (A) (A) (A) (A) (A) (A) (A)
                 (A) (A) (A) (A) (A) (A) (A) (A) (A) (A) (A) (A)
                 (A) (A) (A) (A) (A) (A) (A) (A) (A) (A) (A) (A)
                 (A) (A) (A) (A) (A) (A) (A) (A) (A) (A) (A) (A)
                 (A) (A) (A) (A) (A) (A) (A) (A) (A) (A) (A) (A)
                 (A) (A) (A) (A) (A) (A) (A) (A) (A) (A) (A) (A)
                 (A) (A) (A) (A) (A) (A) (A) (A) (A) (A) (A) (A)
                 (A) (A) (A) (A) (A) (A) (A) (A) (A) (A) (A) (A)
                 (A) (A) (A) (A) (A) (A) (A) (A) (A) (A) (A) (A)
                 (A) (A) (A) (A) (A) (A) (A) (A) (A) (A) (A) (A)
                 (A) (A) (A) (A) (A) (A) (A) (A) (A) (A) (A) (A)
                 (A) (A) (A) (A) (A) (A) (A) (A) (A) (A) (A) (A)
                 (A) (A) (A) (A) (A) (A) (A) (A) (A) (A) (A) (A)
                 (A) (A) (A) (A) (A) (A) (A) (A) (A) (A) (A) (A)
                 (A) (A) (A) (A) (A) (A) (A) (A) (A) (A) (A) (A)
                 (A) (A) (A) (A) (A) (A) (A) (A) (A) (A) (A) (A)
                 (A) (A) (A) (A) (A) (A) (A) (A) (A) (A) (A) (A)
                 (A) (A) (A) (A) (A) (A) (A) (A) (A) (A) (A) (A)
                 (A) (A) (A) (A) (A) (A) (A) (A) (A) (A) (A) (A)
                 (A) (A) (A) (A) (A) (A) (A) (A) (A) (A) (A) (A)
 Harris functional with IExCor=  402 diagonalized for initial guess.
 ExpMin= 1.03D-01 ExpMax= 8.59D+03 ExpMxC= 1.30D+03 IAcc=1 IRadAn=         1 AccDes= 0.00D+00
 HarFok:  IExCor=  402 AccDes= 0.00D+00 IRadAn=         1 IDoV= 1
 ScaDFX=  1.000000  1.000000  1.000000  1.000000
 FoFCou: FMM=F IPFlag=           0 FMFlag=      100000 FMFlg1=           0
         NFxFlg=           0 DoJE=T BraDBF=F KetDBF=T FulRan=T
         Omega=  0.000000  0.000000  1.000000  0.000000  0.000000 ICntrl=     500 IOpCl=  0
         NMat0=    1 NMatS0=    1 NMatT0=    0 NMatD0=    1 NMtDS0=    0 NMtDT0=    0
         I1Cent=           4 NGrid=           0.
 Petite list used in FoFCou.
 Requested convergence on RMS density matrix=1.00D-08 within 128 cycles.
 Requested convergence on MAX density matrix=1.00D-06.
 Requested convergence on             energy=1.00D-06.
 No special actions if energy rises.
 Keep R1 ints in memory in canonical form, NReq=1033417155.
 Integral accuracy reduced to 1.0D-05 until final iterations.
 Initial convergence to 1.0D-05 achieved.  Increase integral accuracy.
 SCF Done:  E(RB3LYP) =  -687.348392169     A.U. after   15 cycles
             Convg  =    0.4058D-08             -V/T =  2.0031
 Calling FoFJK, ICntrl=      2127 FMM=F ISym2X=0 I1Cent= 0 IOpClX= 0 NMat=1 NMatS=1 NMatT=0.
 ***** Axes restored to original set *****
 -------------------------------------------------------------------
 Center     Atomic                   Forces (Hartrees/Bohr)
 Number     Number              X              Y              Z
 -------------------------------------------------------------------
      1        8          -0.000322097    0.000866424   -0.001241640
      2        8           0.004094734    0.000547767    0.002948118
      3        8          -0.000538142    0.008954987   -0.000778193
      4        8           0.004041538    0.003318213    0.002050948
      5        8          -0.002568275    0.003381587    0.000003257
      6        8          -0.006938443    0.001298676   -0.000441149
      7        6          -0.000805608    0.004587482    0.000820141
      8        6          -0.004080077    0.000766877   -0.001427004
      9        6           0.001540875   -0.011916896   -0.004600863
     10        6          -0.006273595   -0.004519989   -0.002820668
     11        6           0.003484788   -0.003402370    0.005639211
     12        6           0.006704832    0.000319856   -0.000838610
     13        1           0.000087238   -0.001831460    0.000650963
     14        1           0.000662835   -0.000239860   -0.000074000
     15        1          -0.000394490    0.000258865   -0.000249908
     16        1           0.001837606    0.000096124   -0.000307879
     17        1           0.000008285    0.001147724    0.000416706
     18        1          -0.000511139   -0.000310827    0.001515113
     19        1          -0.002202801    0.000523851   -0.000633509
     20        1          -0.000089351    0.001329362   -0.000724422
     21        1          -0.002190352    0.000362156   -0.000766677
     22        1           0.003318986   -0.000999669    0.000593479
     23        1          -0.000310125   -0.000612269   -0.000202835
     24        1           0.001442781   -0.003926608    0.000469422
 -------------------------------------------------------------------
 Cartesian Forces:  Max     0.011916896 RMS     0.002984235

 GradGradGradGradGradGradGradGradGradGradGradGradGradGradGradGradGradGrad
 Berny optimization.
 Using GEDIIS/GDIIS optimizer.
 Internal  Forces:  Max     0.008030231 RMS     0.001664835
 Search for a local minimum.
 Step number   2 out of a maximum of  125
 All quantities printed in internal units (Hartrees-Bohrs-Radians)
 Mixed Optimization -- RFO/linear search
 Update second derivatives using D2CorX and points    1    2
 DE= -1.14D-02 DEPred=-1.30D-02 R= 8.76D-01
 SS=  1.41D+00  RLast= 4.54D-01 DXNew= 5.0454D-01 1.3607D+00
 Trust test= 8.76D-01 RLast= 4.54D-01 DXMaxT set to 5.05D-01
 ITU=  1  0
 Use linear search instead of GDIIS.
     Eigenvalues ---    0.00234   0.00287   0.00383   0.00400   0.00476
     Eigenvalues ---    0.00542   0.01317   0.01364   0.01374   0.01382
     Eigenvalues ---    0.01488   0.04149   0.04362   0.04607   0.04717
     Eigenvalues ---    0.05148   0.05298   0.05407   0.05907   0.06075
     Eigenvalues ---    0.07173   0.07349   0.07436   0.08021   0.11028
     Eigenvalues ---    0.11905   0.13574   0.14213   0.15814   0.16000
     Eigenvalues ---    0.16000   0.16000   0.16016   0.16786   0.16926
     Eigenvalues ---    0.18146   0.19843   0.20129   0.20392   0.22032
     Eigenvalues ---    0.23543   0.24976   0.25019   0.28527   0.29351
     Eigenvalues ---    0.29521   0.29750   0.30724   0.34042   0.34143
     Eigenvalues ---    0.34195   0.34220   0.34421   0.34482   0.34530
     Eigenvalues ---    0.41379   0.41612   0.41924   0.42585   0.43845
     Eigenvalues ---    0.52820   0.52866   0.52886   0.52937   0.53190
     Eigenvalues ---    0.87821
 RFO step:  Lambda=-4.40453477D-03 EMin= 2.34418780D-03
 Quartic linear search produced a step of  0.06125.
 Iteration  1 RMS(Cart)=  0.09705745 RMS(Int)=  0.00320330
 Iteration  2 RMS(Cart)=  0.00533077 RMS(Int)=  0.00009292
 Iteration  3 RMS(Cart)=  0.00002164 RMS(Int)=  0.00009184
 Iteration  4 RMS(Cart)=  0.00000000 RMS(Int)=  0.00009184
 Variable       Old X    -DE/DX   Delta X   Delta X   Delta X     New X
                                 (Linear)    (Quad)   (Total)
    R1        2.70891   0.00014   0.00103   0.00120   0.00223   2.71114
    R2        1.81400   0.00055  -0.00139  -0.00009  -0.00148   1.81252
    R3        2.69721  -0.00233   0.00000  -0.00578  -0.00578   2.69143
    R4        1.82204   0.00020  -0.00095  -0.00040  -0.00135   1.82069
    R5        2.68339  -0.00803  -0.00026  -0.01978  -0.02004   2.66335
    R6        1.82261   0.00087  -0.00096   0.00089  -0.00006   1.82255
    R7        2.69768  -0.00478   0.00041  -0.01138  -0.01097   2.68672
    R8        1.81747  -0.00023  -0.00123  -0.00147  -0.00270   1.81477
    R9        2.28181  -0.00359  -0.00283  -0.00649  -0.00933   2.27248
   R10        2.67263  -0.00580   0.00009  -0.01363  -0.01354   2.65909
   R11        1.81821   0.00063  -0.00120   0.00023  -0.00097   1.81725
   R12        2.90550   0.00188  -0.00030   0.00651   0.00621   2.91170
   R13        2.88450   0.00578  -0.00114   0.01955   0.01841   2.90291
   R14        2.08775  -0.00190   0.00082  -0.00505  -0.00423   2.08352
   R15        2.88504  -0.00023  -0.00026  -0.00100  -0.00127   2.88378
   R16        2.05980   0.00009  -0.00066  -0.00028  -0.00094   2.05887
   R17        2.90950   0.00045   0.00139   0.00266   0.00405   2.91355
   R18        2.06711   0.00029  -0.00016   0.00075   0.00059   2.06769
   R19        2.07551  -0.00012   0.00057   0.00010   0.00067   2.07618
   R20        2.08328   0.00095   0.00085   0.00355   0.00440   2.08768
   R21        2.88985  -0.00005   0.00146   0.00103   0.00248   2.89233
   R22        2.06641   0.00085   0.00006   0.00258   0.00264   2.06906
   R23        2.07718   0.00069   0.00081   0.00271   0.00351   2.08069
    A1        1.89947   0.00243   0.00093   0.01601   0.01694   1.91641
    A2        1.88246   0.00172  -0.00005   0.01081   0.01076   1.89322
    A3        1.85874   0.00056  -0.00136   0.00247   0.00112   1.85985
    A4        1.87853   0.00116   0.00064   0.00781   0.00845   1.88698
    A5        1.87662   0.00097   0.00003   0.00611   0.00614   1.88275
    A6        1.96394  -0.00009   0.00281  -0.00208   0.00022   1.96415
    A7        1.84622  -0.00005  -0.00502  -0.00683  -0.01190   1.83433
    A8        1.92401   0.00006   0.00409   0.00478   0.00890   1.93292
    A9        1.95043  -0.00053  -0.00399  -0.00722  -0.01129   1.93914
   A10        1.87637   0.00011  -0.00006   0.00213   0.00205   1.87842
   A11        1.90270   0.00053   0.00267   0.00973   0.01252   1.91522
   A12        1.92291  -0.00118   0.00025  -0.00600  -0.00590   1.91701
   A13        1.94105   0.00072   0.00347   0.01051   0.01396   1.95501
   A14        1.84004   0.00039  -0.00209   0.00203  -0.00017   1.83988
   A15        1.95259   0.00093   0.00003   0.00477   0.00475   1.95734
   A16        1.90685  -0.00080  -0.00157  -0.01338  -0.01498   1.89186
   A17        1.89656  -0.00010  -0.00019   0.00149   0.00131   1.89788
   A18        1.94484   0.00059   0.00339  -0.00163   0.00166   1.94649
   A19        1.94501  -0.00245   0.00354  -0.01922  -0.01570   1.92931
   A20        1.84248   0.00090  -0.00152   0.01147   0.01004   1.85251
   A21        1.95467   0.00076  -0.00373  -0.00504  -0.00897   1.94570
   A22        1.88139  -0.00077  -0.00291   0.00008  -0.00283   1.87856
   A23        1.88995   0.00105   0.00125   0.01676   0.01791   1.90785
   A24        1.87712   0.00229  -0.00135   0.01176   0.01043   1.88755
   A25        1.92592   0.00051   0.00287   0.00933   0.01225   1.93817
   A26        1.93887  -0.00082   0.00360   0.00348   0.00699   1.94587
   A27        1.92086  -0.00240  -0.00194  -0.01986  -0.02188   1.89898
   A28        1.90187   0.00040  -0.00230   0.00283   0.00039   1.90226
   A29        1.89909  -0.00001  -0.00073  -0.00776  -0.00881   1.89028
   A30        2.11458   0.00033  -0.00045   0.00099   0.00052   2.11510
   A31        2.11383  -0.00076  -0.00025  -0.00330  -0.00358   2.11025
   A32        2.05476   0.00044   0.00072   0.00237   0.00307   2.05783
   A33        1.98850  -0.00477   0.00377  -0.01827  -0.01452   1.97397
   A34        1.84808   0.00188  -0.00287   0.01169   0.00889   1.85697
   A35        1.95455   0.00156   0.00372   0.00714   0.01080   1.96535
   A36        1.89902   0.00176  -0.00025   0.01186   0.01166   1.91067
   A37        1.88978   0.00113  -0.00225  -0.00038  -0.00274   1.88703
   A38        1.88017  -0.00141  -0.00233  -0.01146  -0.01381   1.86636
    D1       -1.37689   0.00014  -0.00354   0.01828   0.01461  -1.36227
    D2        2.77205   0.00089   0.00319   0.03301   0.03618   2.80823
    D3        0.71753   0.00026   0.00054   0.02291   0.02359   0.74112
    D4       -1.08955  -0.00196  -0.00379  -0.08131  -0.08512  -1.17467
    D5        1.08582  -0.00111  -0.00125  -0.07201  -0.07324   1.01258
    D6        3.13826  -0.00064  -0.00084  -0.06365  -0.06449   3.07377
    D7       -1.07445  -0.00187  -0.00509  -0.10174  -0.10692  -1.18137
    D8        1.12295  -0.00229  -0.00498  -0.12443  -0.12926   0.99370
    D9       -3.11220  -0.00178  -0.00256  -0.10766  -0.11027   3.06071
   D10       -3.14114  -0.00101  -0.00035  -0.01503  -0.01538   3.12666
   D11        1.04657   0.00021   0.00112  -0.00353  -0.00235   1.04423
   D12       -1.06126   0.00042  -0.00185  -0.00230  -0.00421  -1.06547
   D13       -1.08661   0.00292   0.00348   0.13370   0.13707  -0.94954
[...]
 38,0.00002208,-0.00000582,-0.00010598,-0.01371861,-0.00243143,-0.03849
 632,0.00000425,0.00001413,-0.00004405,0.00001939,0.00000398,-0.0000121
 3,0.00039554,-0.00026596,0.00128251,0.00527294,-0.00786911,0.02007126,
 -0.00008064,0.00011959,0.00010027,-0.04955303,0.00199370,0.00817788,-0
 .00002243,-0.00000007,0.00006546,-0.00003506,0.00003405,0.00001575,-0.
 00008616,0.00011919,-0.00019818,0.00074039,0.00026744,-0.00087717,0.00
 013762,-0.00007026,-0.00006990,0.05970138,0.00013376,-0.00002766,0.000
 07661,0.00301928,-0.00073192,-0.00348139,-0.00007011,-0.00000759,0.000
 05596,-0.00402128,0.00407254,-0.01515275,-0.00001330,-0.00000722,0.000
 00541,-0.00002133,-0.00000248,-0.00000820,-0.00036405,-0.00007592,0.00
 026870,-0.00057993,0.00368221,-0.01705900,0.00007818,0.00010039,-0.000
 20390,-0.00008205,-0.06239362,0.04303028,-0.00000170,-0.00001311,0.000
 01279,0.00000843,-0.00000622,-0.00000566,0.00007113,0.00006605,0.00000
 022,-0.00068484,0.00035931,0.00015039,-0.00004429,-0.00001404,0.000011
 19,0.00384202,0.05860087,-0.00306943,-0.00015791,0.00178945,0.00245436
 ,-0.00304723,-0.00166471,-0.00002603,-0.00009181,0.00019652,-0.0128255
 2,-0.00356647,-0.00987154,0.00013151,-0.00003706,0.00017672,0.00000647
 ,0.00001379,0.00003690,-0.00003016,-0.00053533,-0.00291185,-0.00029765
 ,0.00561389,-0.01326952,0.00035494,0.00021391,0.00018531,0.00698976,0.
 03895608,-0.28910846,-0.00009589,-0.00012078,-0.00026178,0.00002122,-0
 .00001669,-0.00002135,0.00001865,-0.00019696,0.00015954,-0.00012999,-0
 .00048850,0.00070723,-0.00020632,0.00011460,0.00007303,0.00414058,-0.0
 3912649,0.31782091,0.00011334,-0.00012800,-0.00010842,0.00118385,-0.00
 238570,-0.00099008,-0.00041030,-0.00003486,-0.00006587,-0.01931628,-0.
 03632523,-0.00199239,-0.00004811,-0.00006014,0.00000663,-0.00000761,-0
 .00002260,0.00000195,0.00198072,0.00102317,-0.00051028,0.00235981,0.02
 588205,-0.00672745,0.00025234,0.00022305,0.00000958,-0.05249178,-0.022
 44100,0.00795686,-0.00001671,0.00002111,-0.00000362,-0.00002186,0.0000
 1290,0.00000012,-0.00028769,-0.00054399,0.00016330,-0.00315537,0.00225
 675,0.00310491,0.00000316,-0.00000810,0.00000411,0.00284063,-0.0009265
 3,0.00184106,0.06561405,0.00059025,0.00053102,0.00050593,-0.00086489,0
 .00352831,-0.00030765,0.00028480,0.00037076,-0.00005899,-0.01178624,-0
 .00748205,-0.00297532,0.00013416,0.00012430,0.00001986,-0.00001714,0.0
 0006640,-0.00001352,-0.00190366,-0.00022960,-0.00034544,-0.00032245,-0
 .02126027,0.00723835,0.00027485,-0.00017022,-0.00006887,-0.02540662,-0
 .26950915,0.05398556,-0.00009003,-0.00023810,-0.00002202,0.00007405,0.
 00000216,-0.00000254,0.00106485,0.00067031,-0.00023846,0.00250300,-0.0
 0065260,-0.00236657,-0.00005070,0.00002567,0.00000407,0.00087687,-0.00
 337800,0.00144471,0.03465041,0.29790235,-0.00042598,-0.00033813,-0.000
 01591,-0.00073704,0.00053251,0.00213733,0.00013017,0.00003520,0.000027
 36,-0.00737843,-0.01768969,0.00442625,-0.00004546,0.00000954,-0.000032
 19,-0.00001944,-0.00001290,-0.00001124,-0.00054109,0.00030355,0.000493
 50,-0.00092564,-0.01371386,0.00284649,-0.00022519,-0.00014407,-0.00006
 268,0.00728569,0.05849876,-0.06956997,0.00009397,0.00004402,0.00005674
 ,0.00000735,-0.00000855,0.00000855,0.00008754,0.00017626,0.00005412,0.
 00157649,-0.00165245,-0.00056678,0.00005469,-0.00001138,-0.00000286,0.
 00339776,0.03012512,-0.00483822,-0.00320994,-0.05648667,0.06497637,-0.
 08632836,0.18569098,0.06701402,-0.00118776,0.00034437,0.00049941,0.000
 00583,-0.00057440,-0.00027211,0.00088554,0.00043442,0.00134803,-0.0002
 6271,-0.00056596,0.00018235,0.00037021,-0.00029752,-0.00006272,-0.0008
 3238,-0.00643082,-0.00409823,0.00148776,-0.00132616,-0.00248287,-0.000
 29226,-0.00021383,0.00222195,-0.00102028,-0.00008156,-0.00273515,0.000
 95182,0.00132446,-0.00006405,-0.00073522,0.00044576,0.00010711,0.00062
 427,0.00034451,-0.00100800,0.00000879,0.00012897,0.00020641,-0.0001990
 8,0.00059348,0.00031310,-0.00138821,-0.00072224,0.00096467,-0.00017068
 ,0.00030870,-0.00022652,0.08799253,0.17964550,-0.38845236,-0.16190733,
 0.00031892,0.00013643,0.00072363,0.00004052,0.00067290,-0.00083988,0.0
 0047884,-0.00027068,0.00088778,-0.00030022,-0.00008197,-0.00004750,0.0
 0008428,-0.00011501,-0.00000189,0.00035076,-0.00063884,0.00790223,-0.0
 0021662,-0.00093621,-0.00054675,-0.00073806,0.00009418,0.00091526,-0.0
 0013854,0.00126966,-0.00198951,0.00049840,0.00036269,-0.00002279,-0.00
 021415,0.00004277,0.00018399,-0.00025988,0.00216246,0.00183918,0.00014
 018,0.00001256,0.00000869,-0.00004080,0.00015926,0.00040212,-0.0005487
 9,-0.00001760,0.00093222,0.00001618,-0.00055306,0.00042624,-0.17893004
 ,0.38565912,0.04387706,-0.11425676,-0.08934807,0.00033033,0.00029265,0
 .00050540,-0.00085186,0.00094805,0.00140052,0.00055616,0.00035312,0.00
 004481,-0.00012006,-0.00001817,0.00020344,-0.00040813,0.00003251,-0.00
 014173,0.01757980,-0.03822155,-0.01884753,-0.00031503,-0.00086743,-0.0
 0105077,-0.00112050,0.00133389,-0.00830850,-0.00083119,-0.00081514,0.0
 0032682,-0.00048297,-0.00015651,-0.00067381,0.00054730,-0.00023455,-0.
 00005410,0.00086479,0.00099150,0.00206488,0.00017076,0.00011353,0.0001
 6386,0.00154314,-0.00124645,-0.00064201,-0.00004250,0.00012089,0.00033
 029,-0.00010914,0.00044853,-0.00027216,-0.06141749,0.15100673,0.114152
 53,-0.00059015,-0.00018932,-0.00008929,-0.00001455,0.00004062,-0.00006
 514,-0.00000797,0.00017177,-0.00010952,-0.00000013,0.00000616,-0.00002
 469,0.00098615,-0.00300832,-0.00011865,-0.01906466,0.00825715,-0.03685
 048,0.00038621,-0.00025544,0.00072698,-0.00002586,0.00002796,-0.000018
 34,-0.00036399,-0.00017428,-0.00123499,-0.00001627,-0.00000822,0.00001
 212,0.00298663,0.00447631,0.01032440,-0.04634770,-0.00066562,-0.012518
 64,-0.00006929,0.00028440,0.00005843,0.00006678,0.00001624,-0.00001099
 ,-0.00050171,-0.00069957,0.00027997,0.00001688,0.00000074,-0.00002206,
 -0.00000166,0.00001232,0.00000927,0.00014516,0.00000360,-0.00004924,0.
 06350865,0.00028980,0.00019309,0.00012233,0.00002094,-0.00003570,0.000
 01431,-0.00000248,0.00012057,-0.00064363,0.00003435,-0.00001194,0.0000
 1109,-0.00018444,-0.00643453,-0.00165127,-0.00292527,0.00428758,-0.002
 43350,0.00019878,0.00014074,-0.00012168,0.00000526,-0.00014317,-0.0000
 4722,0.00018454,-0.00063602,-0.00206356,0.00000667,0.00004555,-0.00000
 333,0.00382301,-0.00127433,0.03226382,0.00112306,-0.04977584,0.0355807
 5,-0.00008577,-0.00008354,0.00003026,-0.00001000,-0.00000631,-0.000014
 93,-0.00106961,-0.00034393,-0.00020319,0.00000011,-0.00000416,0.000007
 05,-0.00000220,-0.00000674,0.00000166,-0.00011780,-0.00001858,0.000016
 05,-0.00258885,0.05087994,0.00036520,0.00026173,0.00056360,-0.00005069
 ,-0.00002682,0.00009385,0.00047197,-0.00027231,0.00056706,-0.00003314,
 -0.00000598,0.00003668,0.00148094,0.00051417,0.00053225,-0.01341766,0.
 00225501,-0.00082271,0.00022164,0.00025271,-0.00073857,0.00005677,-0.0
 0003446,-0.00009646,-0.00086617,0.00085776,-0.00110517,0.00002587,0.00
 001119,-0.00003389,-0.00061294,0.00082192,-0.00809189,-0.01827361,0.03
 320596,-0.28739936,-0.00000091,-0.00018053,-0.00002267,-0.00002611,-0.
 00002638,0.00001668,0.00006577,-0.00018469,0.00102005,-0.00001211,-0.0
 0000414,0.00002917,0.00000059,-0.00000846,-0.00001097,-0.00013266,-0.0
 0005493,0.00002296,0.02919772,-0.03644577,0.31370535,-0.00017317,0.000
 01400,-0.00046999,0.00005232,0.00001785,-0.00003279,0.00012966,0.00025
 160,0.00012524,-0.00005878,0.00002631,0.00000145,0.00044891,-0.0018271
 2,0.00330063,-0.03719586,0.02019163,0.00270212,-0.00238354,-0.00127434
 ,0.00018490,-0.00005922,0.00007527,0.00038978,-0.00089382,0.00148351,-
 0.00007534,-0.00001206,-0.00009386,-0.00004242,0.00874303,-0.00232622,
 -0.00738167,-0.10235153,0.08212837,0.05882833,-0.00072474,-0.00092748,
 -0.00023434,-0.00005240,0.00000501,-0.00001929,0.00006411,-0.00019121,
 0.00016846,-0.00000947,0.00000071,-0.00000106,-0.00000706,0.00000610,0
 .00000687,-0.00005062,-0.00003669,0.00011084,0.00258453,0.00084692,0.0
 0154382,0.13601611,0.00119581,0.00092040,0.00018961,0.00013141,0.00002
 734,0.00019319,-0.00079467,0.00013828,0.00019735,0.00014971,0.00003305
 ,0.00006138,-0.00294215,-0.00188507,0.00422760,-0.00014124,0.00955678,
 0.00475318,-0.00043966,-0.00171369,-0.00091075,-0.00036775,0.00051698,
 -0.00017237,-0.00163283,0.00012622,0.00217009,-0.00016786,-0.00001276,
 -0.00007748,0.01789431,-0.02134759,-0.01723832,0.08760606,-0.17032565,
 -0.08529949,-0.00079699,0.00078661,-0.00038583,0.00024482,0.00003907,0
 .00005550,0.00051972,0.00009287,0.00013993,-0.00004023,0.00000154,0.00
 004236,-0.00001121,0.00001674,-0.00000099,-0.00045846,-0.00001382,0.00
 029604,-0.00198466,0.00443955,0.00199638,-0.09808645,0.17886375,-0.000
 16859,-0.00000620,-0.00040237,-0.00006764,0.00003971,0.00000824,-0.000
 10206,-0.00005315,-0.00000993,0.00006871,0.00002124,-0.00001264,0.0006
 1557,0.00069453,-0.00258628,-0.00616669,0.00921553,0.01078402,0.000922
 72,-0.00078846,0.00123737,-0.00003203,0.00033352,-0.00034791,0.0001641
 1,-0.00089270,-0.00099497,-0.00003660,-0.00003925,0.00007649,-0.004857
 34,0.00797712,0.00500714,0.05965534,-0.08365945,-0.10173058,-0.0003428
 9,0.00059709,-0.00026945,0.00015452,0.00003471,0.00003285,-0.00010875,
 -0.00019306,0.00015719,0.00003073,0.00002173,-0.00002552,-0.00000494,0
 .00002623,0.00001264,0.00012731,0.00000953,0.00004905,0.01474848,-0.02
 464076,-0.01700949,-0.06309520,0.09024101,0.10663657,0.00024362,0.0001
 1851,0.00102447,-0.47590706,-0.07137493,-0.11450063,0.00023393,-0.0000
 5785,-0.00000669,-0.00123432,-0.00042928,-0.00041021,0.00017797,0.0000
 1826,0.00007538,0.00012013,0.00003477,0.00002798,0.00009939,0.00092718
 ,-0.00080739,-0.00268859,-0.00174539,-0.00272105,-0.00021195,-0.000148
 70,0.00043922,0.00355194,0.00107170,0.00377105,-0.00010632,-0.00004849
 ,-0.00010192,-0.00007095,0.00002953,-0.00001189,0.00016778,0.00011235,
 -0.00002187,0.00013800,-0.00027204,0.00153758,-0.00014613,-0.00002288,
 -0.00022363,-0.00135724,-0.00022295,-0.00030819,-0.00050084,-0.0003192
 7,-0.00030633,0.00010626,0.00003192,-0.00003954,-0.00000919,-0.0000087
 0,0.00001546,0.00000353,-0.00001984,-0.00001856,0.47796163,-0.00038627
 ,0.00069417,-0.00051367,-0.07562565,-0.01797488,-0.01354632,-0.0001494
 0,-0.00018708,-0.00006768,0.00000177,-0.00170440,0.00236554,0.00007939
 ,-0.00013316,0.00006420,-0.00000192,-0.00002746,-0.00000947,-0.0005282
 3,-0.00103692,-0.00078936,0.00491635,0.00083511,0.00294991,0.00042410,
 0.00034924,-0.00001058,-0.00221032,0.00113548,-0.00180052,-0.00018096,
 -0.00001410,0.00001315,-0.00000907,-0.00001240,-0.00000446,0.00032784,
 0.00029600,-0.00000689,0.00098764,0.00001546,0.00060870,-0.00007077,-0
 .00002329,0.00017468,-0.00024524,0.00001642,0.00061845,0.00014306,-0.0
 0060314,-0.00038664,-0.00008271,0.00004516,0.00013949,0.00001308,0.000
 01619,-0.00000619,0.00002054,0.00001110,0.00000534,0.07230188,0.018698
 70,-0.00212590,-0.00087683,-0.00177557,-0.06439710,-0.00435130,-0.0599
 7842,0.00012454,-0.00021056,0.00009380,-0.00102698,0.00110467,0.000396
 03,0.00036513,-0.00007809,0.00014097,0.00014048,0.00004338,0.00000410,
 0.00240533,0.00160938,-0.00701767,-0.04603135,-0.00738503,-0.01889224,
 0.00079083,0.00017594,0.00002387,-0.00344235,-0.00219619,-0.00228104,-
 0.00050920,-0.00013509,-0.00006338,-0.00006929,0.00003601,0.00000224,0
 .00027312,-0.00019378,0.00009450,-0.00006758,0.00073826,0.00047525,-0.
 00056876,0.00030689,0.00025818,-0.00025932,0.00046665,0.00074370,0.000
 54276,0.00015707,-0.00004840,-0.00035165,0.00004431,-0.00001473,-0.000
 01819,-0.00000906,0.00002241,0.00001318,-0.00000681,-0.00003260,0.1135
 7328,0.01056978,0.08588373,-0.00019076,-0.00077823,-0.00035569,0.00024
 336,-0.00021911,0.00024253,-0.26910634,0.07360834,-0.23708679,0.000104
 00,-0.00004325,0.00008211,0.00050355,0.00593833,-0.00204127,-0.0008667
 2,0.00066034,-0.00056514,-0.00100638,0.00002894,-0.00135185,-0.0005052
 7,0.00049956,0.00021474,0.00662101,0.00390684,0.00549798,-0.00010121,0
 .00009969,-0.00020318,0.00388482,-0.01139540,0.00581335,-0.00039754,0.
 00225344,-0.00127453,0.00026911,-0.00043566,0.00003648,-0.00016901,0.0
 0012386,-0.00022590,-0.00172576,-0.00391186,0.00294761,-0.00002399,0.0
 0002231,0.00005258,-0.00003682,-0.00002955,0.00003715,0.00015927,-0.00
 016207,0.00027529,0.00021747,0.00048717,-0.00032999,0.00013285,0.00049
 351,-0.00007224,-0.00003234,0.00005608,-0.00005780,0.26293547,-0.00052
 165,0.00054631,-0.00029351,-0.00018161,0.00016139,-0.00014684,0.038007
 02,-0.05629657,0.05489716,-0.00023979,-0.00000336,-0.00003705,0.002775
 11,0.00234426,-0.00293835,0.00055427,0.00090080,-0.00028486,-0.0000216
 7,-0.00466224,0.00333955,-0.00060137,-0.00014293,0.00035174,0.02910410
 ,-0.01925966,0.03026202,0.00019296,-0.00005514,-0.00005173,0.00050483,
 -0.00508052,0.00546128,0.00020410,0.00005657,0.00046033,0.00064294,-0.
 00073793,-0.00084039,0.00030579,0.00004594,-0.00014428,-0.00042538,-0.
 00327808,-0.00008867,0.00002866,0.00001227,-0.00003199,-0.00000533,0.0
 0006336,0.00000896,-0.00009582,0.00028993,-0.00029511,0.00005269,0.000
 09809,-0.00015242,0.00008325,0.00022661,-0.00001936,0.00007134,-0.0000
 1583,0.00004088,-0.06972486,0.08536439,-0.00024629,0.00022870,-0.00085
 564,-0.00007213,-0.00010529,0.00000855,-0.22003894,0.08152580,-0.20204
 779,0.00016274,0.00001135,-0.00008839,0.00072569,-0.00210448,-0.003732
 39,-0.00072387,-0.00050897,-0.00012718,0.00054081,-0.00245920,0.001674
 41,0.00007848,-0.00036423,-0.00038673,-0.00605415,0.00928449,-0.014849
 01,-0.00010770,-0.00010062,0.00031457,-0.00187004,-0.00093332,0.003132
 33,-0.00094352,0.00130408,-0.00031875,0.00038824,-0.00081453,-0.000420
 42,-0.00044237,-0.00001179,0.00015204,0.00030475,0.00440560,-0.0011771
 7,0.00002594,0.00000459,-0.00008203,0.00008720,-0.00003793,-0.00002766
 ,-0.00007928,0.00019802,-0.00009857,0.00003706,0.00004854,0.00002825,0
 .00013430,0.00012220,-0.00004645,-0.00007563,0.00002254,-0.00000031,0.
 22807494,-0.08948454,0.21871065,0.00053721,-0.00007028,-0.00012373,0.0
 0122317,-0.00035433,-0.00135803,0.00018919,-0.00006836,-0.00002409,-0.
 28124407,0.20234724,0.08053711,0.00000550,-0.00002295,-0.00005176,0.00
 008193,-0.00000665,0.00000988,-0.00059884,0.00156855,0.00149485,-0.006
 98882,-0.00376280,-0.00316793,-0.00060536,-0.00039123,-0.00017346,-0.0
 2656609,0.02412903,0.01106198,-0.00006598,0.00020947,0.00012983,-0.000
 06783,0.00000019,-0.00001998,-0.00009089,-0.00007449,0.00003287,0.0004
 2742,-0.00016490,-0.00028191,-0.00000970,-0.00001086,-0.00000436,0.001
 23041,0.00057455,0.00003258,0.00211431,0.00003014,0.00134796,-0.000256
 69,-0.00004303,-0.00011939,-0.00000336,0.00000092,0.00000772,-0.000007
 53,-0.00003080,-0.00000867,-0.00049880,0.00021618,0.00074489,-0.000040
 66,0.00002770,0.00000203,0.31125565,-0.00014430,-0.00007346,0.00020844
 ,-0.00016322,0.00008082,0.00048740,0.00002559,-0.00005962,0.00003202,0
 .24672451,-0.22930126,-0.10626142,-0.00005099,-0.00003743,-0.00003390,
 0.00000341,-0.00002740,0.00000954,-0.00041776,0.00083412,-0.00012654,-
 0.00192656,-0.00093714,-0.00106877,-0.00032201,-0.00003667,-0.00009367
 ,-0.01827304,0.00671682,0.00255709,0.00003473,0.00013581,0.00006717,-0
 .00001716,-0.00000899,-0.00000967,0.00013772,-0.00001107,0.00008916,-0
 .00034053,0.00050398,-0.00000986,0.00001145,-0.00000658,-0.00000051,0.
 00006801,-0.00023618,-0.00052686,-0.00134335,0.00082032,0.00027251,0.0
 0009670,0.00012008,-0.00000971,-0.00000408,0.00000633,0.00000412,0.000
 00042,-0.00000617,-0.00001166,-0.00001850,-0.00039567,0.00018663,0.000
 01773,0.00000740,-0.00000908,-0.22410696,0.22189639,0.00018423,0.00004
 872,-0.00006685,0.00191133,0.00033711,0.00022375,0.00004077,0.00006982
 ,-0.00005042,0.10849949,-0.11374915,-0.05778688,-0.00000580,0.00003496
 ,-0.00005461,-0.00000764,0.00001106,-0.00001797,-0.00054335,0.00016718
 ,0.00049754,-0.00176379,-0.00119333,-0.00273116,-0.00008152,-0.0001355
 4,-0.00002070,-0.01607932,0.01087961,0.00258409,0.00001284,-0.00000064
 ,0.00009397,0.00001980,-0.00000444,0.00000329,0.00002713,0.00002142,-0
 .00005172,0.00018373,-0.00006509,-0.00007211,-0.00002331,-0.00000094,0
 .00002139,-0.00130349,0.00068768,-0.00017877,0.00000396,-0.00090302,0.
 00041713,-0.00007951,-0.00005048,0.00011038,0.00000370,-0.00000452,-0.
 00000663,-0.00000518,-0.00000340,0.00001377,-0.00090080,-0.00039485,0.
 00196610,-0.00002423,-0.00000048,0.00002175,-0.09006549,0.10425239,0.0
 5507634,0.00033115,-0.00015518,-0.00013860,0.00020668,-0.00005996,0.00
 016137,0.00122073,0.00034065,0.00035026,0.00026409,-0.00002133,0.00001
 546,0.00421986,0.00261477,0.00243593,-0.05959508,0.04727769,-0.0467819
 3,-0.00027328,0.00076205,0.00005858,-0.00003862,-0.00027151,-0.0002000
 5,0.00015410,0.00038792,-0.00025305,-0.00010665,0.00009825,0.00008714,
 -0.00584352,0.00203629,-0.00547474,-0.02238506,0.03395026,-0.02722022,
 0.00005657,-0.00021161,0.00006220,-0.00009343,-0.00000290,0.00000447,0
 .00015174,0.00004334,0.00007444,-0.00001161,0.00000348,0.00000392,0.00
 001058,-0.00001994,0.00000617,-0.00001317,0.00001977,0.00005158,-0.003
 88194,-0.00002643,0.00030250,-0.00419527,-0.00032055,-0.00140531,-0.00
 004046,0.00000265,-0.00004806,-0.00086810,-0.00073728,0.00009173,-0.00
 002017,0.00000818,-0.00000355,0.09075086,-0.00007518,-0.00043228,-0.00
 032196,0.00012293,-0.00011149,0.00007742,0.00051331,-0.00105313,0.0006
 0807,0.00016130,-0.00005651,-0.00001132,0.00576982,-0.00045774,-0.0002
 1206,0.08703676,-0.32077984,0.21902740,0.00013226,0.00089650,0.0003912
 7,0.00003881,-0.00024939,-0.00023587,0.00192257,-0.00045158,0.00143195
 ,-0.00001981,0.00012984,0.00010657,-0.01077536,0.00425490,-0.00370278,
 0.00593687,0.00393889,-0.00298424,0.00013144,-0.00021120,0.00004888,-0
 .00009708,-0.00001690,0.00000431,0.00042305,0.00015953,0.00015540,-0.0
 0000370,0.00000412,-0.00001298,0.00000953,-0.00003875,0.00001101,0.000
 18497,0.00007091,0.00002842,-0.00378470,-0.00145284,-0.00277785,-0.000
 38810,-0.00049214,0.00108676,-0.00002862,0.00001531,-0.00003710,-0.001
 49614,-0.00058507,-0.00022192,0.00000366,0.00001556,-0.00000406,-0.085
 71860,0.31690332,-0.00007441,-0.00000544,-0.00025612,-0.00000420,-0.00
 001514,-0.00004946,0.00043767,0.00064736,-0.00023191,0.00000377,0.0000
 0640,-0.00002125,0.00076686,-0.00152804,-0.00415525,-0.07035439,0.2050
 9781,-0.14347611,-0.00018472,-0.00023710,0.00022332,-0.00003422,0.0001
 1460,-0.00000403,-0.00112153,0.00083731,-0.00049027,-0.00001123,-0.000
 01944,0.00001970,0.00157462,0.00144562,0.00414135,-0.00856690,0.006428
 50,-0.01105058,-0.00006705,0.00009415,-0.00011665,0.00002089,0.0000115
 9,0.00001353,-0.00011399,0.00000366,0.00001023,0.00000377,0.00000333,-
 0.00001504,-0.00000088,0.00000515,0.00000257,0.00002588,-0.00001887,0.
 00007700,-0.00426791,0.00018657,-0.00130051,0.00384735,-0.00059038,-0.
 00054715,-0.00001010,0.00000485,-0.00000052,0.00031384,-0.00001231,0.0
 0021594,-0.00000292,-0.00000485,0.00000832,0.07781977,-0.21245532,0.15
 700288\\0.00001532,0.00000941,0.00000311,-0.00000489,-0.00000022,-0.00
 001535,0.00000079,-0.00001065,0.00000168,0.00000122,0.00000007,0.00000
 870,0.00000034,0.00000656,-0.00000282,0.00000091,0.00000121,-0.0000045
 6,-0.00001001,-0.00000726,-0.00001293,0.00000004,0.00000747,0.00003341
 ,-0.00000214,0.00000681,-0.00000012,0.00000421,-0.00000784,-0.00001038
 ,0.00000704,0.00000172,-0.00000093,-0.00000520,-0.00000294,-0.00000131
 ,0.00000391,0.00000085,-0.00000109,0.00000031,-0.00000023,0.00000386,-
 0.00000476,-0.00000672,0.00000437,0.00000041,0.00000442,0.00000356,-0.
 00000013,0.00000251,0.00000057,-0.00000440,0.00000123,-0.00000032,-0.0
 0000461,-0.00000587,-0.00000838,-0.00000002,0.00000054,-0.00000958,0.0
 0000036,-0.00000520,0.00000586,-0.00000113,0.00000519,0.00000453,-0.00
 000128,0.00000028,0.00000572,0.00000371,-0.00000134,-0.00000759\\\@


 CURIOUSER AND CURIOUSER

                  -- ALICE, IN WONDERLAND
 Job cpu time:  0 days  0 hours 25 minutes 38.6 seconds.
 File lengths (MBytes):  RWF=    219 Int=      0 D2E=      0 Chk=      7 Scr=      1
 Normal termination of Gaussian 09 at Mon Jan 22 20:26:00 2018.
