 Entering Gaussian System, Link 0=g09
 Input=R-R-S-Fructuose.inp
 Output=R-R-S-Fructuose.log
 Initial command:
 /usr/local/g09/l1.exe /home/g09scr/Gau-10266.inp -scrdir=/home/g09scr/
 Entering Link 1 = /usr/local/g09/l1.exe PID=     10268.
  
 Copyright (c) 1988,1990,1992,1993,1995,1998,2003,2009,2010,
            Gaussian, Inc.  All Rights Reserved.
  
 This is part of the Gaussian(R) 09 program.  It is based on
 the Gaussian(R) 03 system (copyright 2003, Gaussian, Inc.),
 the Gaussian(R) 98 system (copyright 1998, Gaussian, Inc.),
 the Gaussian(R) 94 system (copyright 1995, Gaussian, Inc.),
 the Gaussian 92(TM) system (copyright 1992, Gaussian, Inc.),
 the Gaussian 90(TM) system (copyright 1990, Gaussian, Inc.),
 the Gaussian 88(TM) system (copyright 1988, Gaussian, Inc.),
 the Gaussian 86(TM) system (copyright 1986, Carnegie Mellon
 University), and the Gaussian 82(TM) system (copyright 1983,
 Carnegie Mellon University). Gaussian is a federally registered
 trademark of Gaussian, Inc.
  
 This software contains proprietary and confidential information,
 including trade secrets, belonging to Gaussian, Inc.
  
 This software is provided under written license and may be
 used, copied, transmitted, or stored only in accord with that
 written license.
  
 The following legend is applicable only to US Government
 contracts under FAR:
  
                    RESTRICTED RIGHTS LEGEND
  
 Use, reproduction and disclosure by the US Government is
 subject to restrictions as set forth in subparagraphs (a)
 and (c) of the Commercial Computer Software - Restricted
 Rights clause in FAR 52.227-19.
  
 Gaussian, Inc.
 340 Quinnipiac St., Bldg. 40, Wallingford CT 06492
  
  
 ---------------------------------------------------------------
 Warning -- This program may not be used in any manner that
 competes with the business of Gaussian, Inc. or will provide
 assistance to any competitor of Gaussian, Inc.  The licensee
 of this program is prohibited from giving any competitor of
 Gaussian, Inc. access to this program.  By using this program,
 the user acknowledges that Gaussian, Inc. is engaged in the
 business of creating and licensing software in the field of
 computational chemistry and represents and warrants to the
 licensee that it is not a competitor of Gaussian, Inc. and that
 it will not use this program in any manner prohibited above.
 ---------------------------------------------------------------
  

 Cite this work as:
 Gaussian 09, Revision B.01,
 M. J. Frisch, G. W. Trucks, H. B. Schlegel, G. E. Scuseria, 
 M. A. Robb, J. R. Cheeseman, G. Scalmani, V. Barone, B. Mennucci, 
 G. A. Petersson, H. Nakatsuji, M. Caricato, X. Li, H. P. Hratchian, 
 A. F. Izmaylov, J. Bloino, G. Zheng, J. L. Sonnenberg, M. Hada, 
 M. Ehara, K. Toyota, R. Fukuda, J. Hasegawa, M. Ishida, T. Nakajima, 
 Y. Honda, O. Kitao, H. Nakai, T. Vreven, J. A. Montgomery, Jr., 
 J. E. Peralta, F. Ogliaro, M. Bearpark, J. J. Heyd, E. Brothers, 
 K. N. Kudin, V. N. Staroverov, T. Keith, R. Kobayashi, J. Normand, 
 K. Raghavachari, A. Rendell, J. C. Burant, S. S. Iyengar, J. Tomasi, 
 M. Cossi, N. Rega, J. M. Millam, M. Klene, J. E. Knox, J. B. Cross, 
 V. Bakken, C. Adamo, J. Jaramillo, R. Gomperts, R. E. Stratmann, 
 O. Yazyev, A. J. Austin, R. Cammi, C. Pomelli, J. W. Ochterski, 
 R. L. Martin, K. Morokuma, V. G. Zakrzewski, G. A. Voth, 
 P. Salvador, J. J. Dannenberg, S. Dapprich, A. D. Daniels, 
 O. Farkas, J. B. Foresman, J. V. Ortiz, J. Cioslowski, 
 and D. J. Fox, Gaussian, Inc., Wallingford CT, 2010.
 
 ******************************************
 Gaussian 09:  EM64L-G09RevB.01 12-Aug-2010
                22-Jan-2018 
 ******************************************
 %nproc=4
 Will use up to    4 processors via shared memory.
 %mem=60gb
 ------------------------------
 #B3LYP/6-311G** fopt test freq
 ------------------------------
 1/14=-1,18=20,19=15,26=3,38=1/1,3;
 2/9=110,12=2,14=103,17=6,18=5,40=1/2;
 3/5=4,6=6,7=101,11=2,16=1,25=1,30=1,71=1,74=-5/1,2,3;
 4//1;
 5/5=2,38=5/2;
 6/7=2,8=2,9=2,10=2,28=1/1;
 7//1,2,3,16;
 1/14=-1,18=20,19=15/3(2);
 2/9=110/2;
 99//99;
 2/9=110/2;
 3/5=4,6=6,7=101,11=2,16=1,25=1,30=1,71=1,74=-5/1,2,3;
 4/5=5,16=3/1;
 5/5=2,38=5/2;
 7//1,2,3,16;
 1/14=-1,18=20,19=15/3(-5);
 2/9=110/2;
 6/7=2,8=2,9=2,10=2,19=2,28=1/1;
 99/9=1/99;
 --------------------------
 Sugars/R-R-S-Fructuose.xyz
 --------------------------
 Symbolic Z-matrix:
 Charge =  0 Multiplicity = 1
 C                     0.        0.        0. 
 O                     0.        0.        1.41352 
 H                     0.92749   0.        1.70592 
 H                     0.51803  -0.89725  -0.34815 
 H                     0.51786   0.89695  -0.34677 
 C                    -1.42147   0.       -0.52884 
 O                    -2.38889  -0.0311    0.23329 
 C                    -1.59838   0.00492  -2.04619 
 C                    -0.29803   0.04539  -2.86317 
 C                    -0.4755    0.02154  -4.39287 
 C                     0.86828   0.04202  -5.12195 
 H                     1.4567   -0.85196  -4.89019 
 H                     1.45026   0.93508  -4.87855 
 O                     0.62907   0.0516   -6.5257 
 H                     1.49772   0.05882  -6.96259 
 H                    -2.23088   0.86564  -2.28847 
 O                    -2.32272  -1.16099  -2.41868 
 H                    -3.17739  -0.87514  -2.78481 
 H                     0.27509  -0.84763  -2.58217 
 O                     0.49379   1.16746  -2.48447 
 H                     1.31496   0.83388  -2.08567 
 H                    -0.89086  -0.93813  -4.72015 
 O                    -1.23294   1.15613  -4.81274 
 H                    -1.99454   0.83438  -5.32464 
 

 GradGradGradGradGradGradGradGradGradGradGradGradGradGradGradGradGradGrad
 Berny optimization.
 Initialization pass.
                           ----------------------------
                           !    Initial Parameters    !
                           ! (Angstroms and Degrees)  !
 --------------------------                            --------------------------
 ! Name  Definition              Value          Derivative Info.                !
 --------------------------------------------------------------------------------
 ! R1    R(1,2)                  1.4135         estimate D2E/DX2                !
 ! R2    R(1,4)                  1.093          estimate D2E/DX2                !
 ! R3    R(1,5)                  1.0922         estimate D2E/DX2                !
 ! R4    R(1,6)                  1.5167         estimate D2E/DX2                !
 ! R5    R(2,3)                  0.9725         estimate D2E/DX2                !
 ! R6    R(6,7)                  1.232          estimate D2E/DX2                !
 ! R7    R(6,8)                  1.5276         estimate D2E/DX2                !
 ! R8    R(8,9)                  1.5362         estimate D2E/DX2                !
 ! R9    R(8,16)                 1.0953         estimate D2E/DX2                !
 ! R10   R(8,17)                 1.4222         estimate D2E/DX2                !
 ! R11   R(9,10)                 1.5401         estimate D2E/DX2                !
 ! R12   R(9,19)                 1.0977         estimate D2E/DX2                !
 ! R13   R(9,20)                 1.4246         estimate D2E/DX2                !
 ! R14   R(10,11)                1.529          estimate D2E/DX2                !
 ! R15   R(10,22)                1.0957         estimate D2E/DX2                !
 ! R16   R(10,23)                1.4273         estimate D2E/DX2                !
 ! R17   R(11,12)                1.0951         estimate D2E/DX2                !
 ! R18   R(11,13)                1.0934         estimate D2E/DX2                !
 ! R19   R(11,14)                1.424          estimate D2E/DX2                !
 ! R20   R(14,15)                0.9724         estimate D2E/DX2                !
 ! R21   R(17,18)                0.9727         estimate D2E/DX2                !
 ! R22   R(20,21)                0.9719         estimate D2E/DX2                !
 ! R23   R(23,24)                0.9724         estimate D2E/DX2                !
 ! A1    A(2,1,4)              108.574          estimate D2E/DX2                !
 ! A2    A(2,1,5)              108.511          estimate D2E/DX2                !
 ! A3    A(2,1,6)              110.407          estimate D2E/DX2                !
 ! A4    A(4,1,5)              110.3838         estimate D2E/DX2                !
 ! A5    A(4,1,6)              109.4597         estimate D2E/DX2                !
 ! A6    A(5,1,6)              109.4917         estimate D2E/DX2                !
 ! A7    A(1,2,3)              107.498          estimate D2E/DX2                !
 ! A8    A(1,6,7)              121.351          estimate D2E/DX2                !
 ! A9    A(1,6,8)              117.057          estimate D2E/DX2                !
 ! A10   A(7,6,8)              121.5748         estimate D2E/DX2                !
 ! A11   A(6,8,9)              115.486          estimate D2E/DX2                !
 ! A12   A(6,8,16)             106.8055         estimate D2E/DX2                !
 ! A13   A(6,8,17)             108.4505         estimate D2E/DX2                !
 ! A14   A(9,8,16)             110.516          estimate D2E/DX2                !
 ! A15   A(9,8,17)             108.265          estimate D2E/DX2                !
 ! A16   A(16,8,17)            106.9882         estimate D2E/DX2                !
 ! A17   A(8,9,10)             115.484          estimate D2E/DX2                !
 ! A18   A(8,9,19)             106.5213         estimate D2E/DX2                !
 ! A19   A(8,9,20)             110.4787         estimate D2E/DX2                !
 ! A20   A(10,9,19)            107.567          estimate D2E/DX2                !
 ! A21   A(10,9,20)            109.894          estimate D2E/DX2                !
 ! A22   A(19,9,20)            106.4113         estimate D2E/DX2                !
 ! A23   A(9,10,11)            111.847          estimate D2E/DX2                !
 ! A24   A(9,10,22)            110.727          estimate D2E/DX2                !
 ! A25   A(9,10,23)            109.938          estimate D2E/DX2                !
 ! A26   A(11,10,22)           101.6812         estimate D2E/DX2                !
 ! A27   A(11,10,23)           108.3891         estimate D2E/DX2                !
 ! A28   A(22,10,23)           114.0276         estimate D2E/DX2                !
 ! A29   A(10,11,12)           111.125          estimate D2E/DX2                !
 ! A30   A(10,11,13)           111.8759         estimate D2E/DX2                !
 ! A31   A(10,11,14)           108.815          estimate D2E/DX2                !
 ! A32   A(12,11,13)           109.4922         estimate D2E/DX2                !
 ! A33   A(12,11,14)           107.7211         estimate D2E/DX2                !
 ! A34   A(13,11,14)           107.6593         estimate D2E/DX2                !
 ! A35   A(11,14,15)           107.0319         estimate D2E/DX2                !
 ! A36   A(8,17,18)            107.768          estimate D2E/DX2                !
 ! A37   A(9,20,21)            107.96           estimate D2E/DX2                !
 ! A38   A(10,23,24)           107.9061         estimate D2E/DX2                !
 ! D1    D(4,1,2,3)             60.0            estimate D2E/DX2                !
 ! D2    D(5,1,2,3)            -60.0            estimate D2E/DX2                !
 ! D3    D(6,1,2,3)            180.0            estimate D2E/DX2                !
 ! D4    D(2,1,6,7)             -1.694          estimate D2E/DX2                !
 ! D5    D(2,1,6,8)            179.793          estimate D2E/DX2                !
 ! D6    D(4,1,6,7)            117.7715         estimate D2E/DX2                !
 ! D7    D(4,1,6,8)            -60.7415         estimate D2E/DX2                !
 ! D8    D(5,1,6,7)           -121.102          estimate D2E/DX2                !
 ! D9    D(5,1,6,8)             60.385          estimate D2E/DX2                !
 ! D10   D(1,6,8,9)             -1.4906         estimate D2E/DX2                !
 ! D11   D(1,6,8,16)          -124.8258         estimate D2E/DX2                !
 ! D12   D(1,6,8,17)           120.1809         estimate D2E/DX2                !
 ! D13   D(7,6,8,9)            180.0            estimate D2E/DX2                !
 ! D14   D(7,6,8,16)            56.6647         estimate D2E/DX2                !
 ! D15   D(7,6,8,17)           -58.3286         estimate D2E/DX2                !
 ! D16   D(6,8,9,10)           178.812          estimate D2E/DX2                !
 ! D17   D(6,8,9,19)            59.4631         estimate D2E/DX2                !
 ! D18   D(6,8,9,20)           -55.71           estimate D2E/DX2                !
 ! D19   D(16,8,9,10)          -59.8319         estimate D2E/DX2                !
 ! D20   D(16,8,9,19)         -179.1809         estimate D2E/DX2                !
 ! D21   D(16,8,9,20)           65.6461         estimate D2E/DX2                !
 ! D22   D(17,8,9,10)           57.041          estimate D2E/DX2                !
 ! D23   D(17,8,9,19)          -62.3079         estimate D2E/DX2                !
 ! D24   D(17,8,9,20)         -177.481          estimate D2E/DX2                !
 ! D25   D(6,8,17,18)          114.8739         estimate D2E/DX2                !
 ! D26   D(9,8,17,18)         -119.126          estimate D2E/DX2                !
 ! D27   D(16,8,17,18)          -0.0001         estimate D2E/DX2                !
 ! D28   D(8,9,10,11)         -179.087          estimate D2E/DX2                !
 ! D29   D(8,9,10,22)          -66.447          estimate D2E/DX2                !
 ! D30   D(8,9,10,23)           60.45           estimate D2E/DX2                !
 ! D31   D(19,9,10,11)         -60.315          estimate D2E/DX2                !
 ! D32   D(19,9,10,22)          52.325          estimate D2E/DX2                !
 ! D33   D(19,9,10,23)         179.222          estimate D2E/DX2                !
 ! D34   D(20,9,10,11)          55.135          estimate D2E/DX2                !
 ! D35   D(20,9,10,22)         167.775          estimate D2E/DX2                !
 ! D36   D(20,9,10,23)         -65.3281         estimate D2E/DX2                !
 ! D37   D(8,9,20,21)          115.2421         estimate D2E/DX2                !
 ! D38   D(10,9,20,21)        -116.1799         estimate D2E/DX2                !
 ! D39   D(19,9,20,21)           0.0            estimate D2E/DX2                !
 ! D40   D(9,10,11,12)          62.961          estimate D2E/DX2                !
 ! D41   D(9,10,11,13)         -59.764          estimate D2E/DX2                !
 ! D42   D(9,10,11,14)        -178.59           estimate D2E/DX2                !
 ! D43   D(22,10,11,12)        -55.2198         estimate D2E/DX2                !
 ! D44   D(22,10,11,13)       -177.9447         estimate D2E/DX2                !
 ! D45   D(22,10,11,14)         63.2292         estimate D2E/DX2                !
 ! D46   D(23,10,11,12)       -175.677          estimate D2E/DX2                !
 ! D47   D(23,10,11,13)         61.598          estimate D2E/DX2                !
 ! D48   D(23,10,11,14)        -57.228          estimate D2E/DX2                !
 ! D49   D(9,10,23,24)        -125.0235         estimate D2E/DX2                !
 ! D50   D(11,10,23,24)        112.4458         estimate D2E/DX2                !
 ! D51   D(22,10,23,24)          0.0            estimate D2E/DX2                !
 ! D52   D(10,11,14,15)       -179.647          estimate D2E/DX2                !
 ! D53   D(12,11,14,15)        -59.077          estimate D2E/DX2                !
 ! D54   D(13,11,14,15)         58.9155         estimate D2E/DX2                !
 --------------------------------------------------------------------------------
 Trust Radius=3.00D-01 FncErr=1.00D-07 GrdErr=1.00D-06
 Number of steps in this run=    125 maximum allowed number of steps=    144.
 GradGradGradGradGradGradGradGradGradGradGradGradGradGradGradGradGradGrad

                          Input orientation:                          
 ---------------------------------------------------------------------
 Center     Atomic      Atomic             Coordinates (Angstroms)
 Number     Number       Type             X           Y           Z
 ---------------------------------------------------------------------
      1          6           0        0.000000    0.000000    0.000000
      2          8           0        0.000000    0.000000    1.413516
      3          1           0        0.927487    0.000000    1.705916
      4          1           0        0.518025   -0.897246   -0.348146
      5          1           0        0.517855    0.896952   -0.346765
      6          6           0       -1.421472    0.000000   -0.528838
      7          8           0       -2.388894   -0.031101    0.233292
      8          6           0       -1.598381    0.004915   -2.046186
      9          6           0       -0.298033    0.045392   -2.863171
     10          6           0       -0.475503    0.021535   -4.392866
     11          6           0        0.868280    0.042020   -5.121945
     12          1           0        1.456696   -0.851959   -4.890189
     13          1           0        1.450260    0.935079   -4.878545
     14          8           0        0.629072    0.051603   -6.525700
     15          1           0        1.497715    0.058819   -6.962591
     16          1           0       -2.230879    0.865635   -2.288466
     17          8           0       -2.322721   -1.160985   -2.418677
     18          1           0       -3.177394   -0.875136   -2.784805
     19          1           0        0.275090   -0.847631   -2.582168
     20          8           0        0.493788    1.167463   -2.484467
     21          1           0        1.314964    0.833878   -2.085668
     22          1           0       -0.890860   -0.938129   -4.720149
     23          8           0       -1.232935    1.156129   -4.812737
     24          1           0       -1.994538    0.834382   -5.324640
 ---------------------------------------------------------------------
                    Distance matrix (angstroms):
                    1          2          3          4          5
     1  C    0.000000
     2  O    1.413516   0.000000
     3  H    1.941747   0.972486   0.000000
     4  H    1.092980   2.043735   2.278570   0.000000
     5  H    1.092219   2.042373   2.277240   1.794199   0.000000
     6  C    1.516658   2.406932   3.242180   2.144609   2.144449
     7  O    2.400460   2.664716   3.628770   3.088439   3.105952
     8  C    2.596483   3.811087   4.523086   2.859442   2.856959
     9  C    2.878998   4.287299   4.730805   2.807110   2.779051
    10  C    4.418579   5.825859   6.258114   4.265093   4.257235
    11  C    5.195190   6.593021   6.828247   4.877915   4.863749
    12  H    5.173176   6.525680   6.671919   4.638244   4.958106
    13  H    5.174730   6.524390   6.671041   4.975037   4.626863
    14  O    6.556154   7.964267   8.237185   6.250985   6.237485
    15  H    7.122098   8.509158   8.687441   6.754608   6.740308
    16  H    3.311076   4.408040   5.165238   3.798561   3.365520
    17  O    3.548650   4.629106   5.378104   3.525123   4.073917
    18  H    4.314723   5.337377   6.146746   4.426502   4.768564
    19  H    2.731619   4.093854   4.419476   2.247740   2.845968
    20  O    2.789153   4.098911   4.371541   2.971107   2.154884
    21  H    2.602786   3.829983   3.901487   2.578931   1.913934
    22  H    4.894234   6.268617   6.743944   4.593587   4.947574
    23  O    5.100902   6.451588   6.963971   5.216779   4.803888
    24  H    5.746840   7.076519   7.659187   5.837551   5.576314
                    6          7          8          9         10
     6  C    0.000000
     7  O    1.231956   0.000000
     8  C    1.527634   2.412929   0.000000
     9  C    2.591001   3.737062   1.536232   0.000000
    10  C    3.978195   5.006513   2.601545   1.540140   0.000000
    11  C    5.132384   6.268420   3.942853   2.542117   1.528963
    12  H    5.294437   6.458516   4.260995   2.827210   2.178007
    13  H    5.295391   6.465561   4.263997   2.812437   2.186095
    14  O    6.337961   7.402630   5.002976   3.778053   2.402076
    15  H    7.065288   8.178909   5.810314   4.475504   3.240134
    16  H    2.121498   2.681113   1.095259   2.176919   2.867464
    17  O    2.394082   2.883393   1.422231   2.398392   2.950930
    18  H    2.989734   3.231569   1.952775   3.023943   3.269571
    19  H    2.795168   3.961104   2.126971   1.097690   2.144170
    20  O    2.975849   4.139158   2.433265   1.424584   2.427893
    21  H    3.256863   4.454697   3.029244   1.956523   3.031309
    22  H    4.327669   5.253892   2.922327   2.183375   1.095715
    23  O    4.441168   5.311136   3.018716   2.430758   1.427340
    24  H    4.901460   5.638722   3.404881   3.091838   1.958671
                   11         12         13         14         15
    11  C    0.000000
    12  H    1.095054   0.000000
    13  H    1.093389   1.787088   0.000000
    14  O    1.424023   2.043595   2.041568   0.000000
    15  H    1.945366   2.264078   2.261268   0.972351   0.000000
    16  H    4.279221   4.828799   4.501568   5.176497   6.033308
    17  O    4.351708   4.526352   4.967879   5.201066   6.060595
    18  H    4.761394   5.089987   5.392199   5.416856   6.338991
    19  H    2.755689   2.592908   3.135670   4.060218   4.637302
    20  O    2.891912   3.285233   2.588523   4.194641   4.721287
    21  H    3.169471   3.275282   2.797983   4.560295   4.941507
    22  H    2.053462   2.355283   3.002472   2.559253   3.424579
    23  O    2.398323   3.357459   2.693089   2.760668   3.644504
    24  H    2.977356   3.865684   3.475021   2.989752   3.934490
                   16         17         18         19         20
    16  H    0.000000
    17  O    2.032874   0.000000
    18  H    2.042676   0.972741   0.000000
    19  H    3.049823   2.621744   3.458535   0.000000
    20  O    2.748332   3.654958   4.211887   2.029280   0.000000
    21  H    3.551780   4.162106   4.857036   2.038461   0.971931
    22  H    3.310936   2.719681   2.996291   2.436923   3.368834
    23  O    2.729876   3.505449   3.466910   3.356282   2.898714
    24  H    3.045519   3.540313   3.282128   3.937198   3.790685
                   21         22         23         24
    21  H    0.000000
    22  H    3.866026   0.000000
    23  O    3.746003   2.124030   0.000000
    24  H    4.630739   2.173778   0.972422   0.000000
 Stoichiometry    C6H12O6
 Framework group  C1[X(C6H12O6)]
 Deg. of freedom    66
 Full point group                 C1      NOp   1
 Largest Abelian subgroup         C1      NOp   1
 Largest concise Abelian subgroup C1      NOp   1
                         Standard orientation:                         
 ---------------------------------------------------------------------
 Center     Atomic      Atomic             Coordinates (Angstroms)
 Number     Number       Type             X           Y           Z
 ---------------------------------------------------------------------
      1          6           0       -2.370744   -1.027667   -0.185053
      2          8           0       -3.757850   -1.298742   -0.163068
      3          1           0       -3.873588   -2.246284   -0.348804
      4          1           0       -1.982198   -1.280745   -1.174795
      5          1           0       -1.886172   -1.636917    0.581072
      6          6           0       -2.114168    0.440019    0.098353
      7          8           0       -3.042317    1.229887    0.278247
      8          6           0       -0.657557    0.900069    0.115858
      9          6           0        0.386384   -0.201137   -0.124018
     10          6           0        1.853445    0.267530   -0.134746
     11          6           0        2.818054   -0.888314   -0.401730
     12          1           0        2.650703   -1.320907   -1.393697
     13          1           0        2.735113   -1.671604    0.356608
     14          8           0        4.151948   -0.391095   -0.365108
     15          1           0        4.741405   -1.143652   -0.543053
     16          1           0       -0.489822    1.383651    1.084158
     17          8           0       -0.489028    1.899094   -0.882284
     18          1           0       -0.271980    2.734060   -0.432900
     19          1           0        0.167935   -0.628665   -1.111146
     20          8           0        0.221834   -1.257515    0.817486
     21          1           0       -0.036050   -2.057078    0.328767
     22          1           0        2.045841    0.919973   -0.993753
     23          8           0        2.187262    0.850900    1.124438
     24          1           0        2.531552    1.744948    0.957865
 ---------------------------------------------------------------------
 Rotational constants (GHZ):      1.8315460      0.4492024      0.3938483
 Standard basis: 6-311G(d,p) (5D, 7F)
 There are   288 symmetry adapted basis functions of A   symmetry.
 Integral buffers will be    131072 words long.
 Raffenetti 2 integral format.
 Two-electron integral symmetry is turned on.
   288 basis functions,   480 primitive gaussians,   300 cartesian basis functions
    48 alpha electrons       48 beta electrons
       nuclear repulsion energy       779.8043416485 Hartrees.
 NAtoms=   24 NActive=   24 NUniq=   24 SFac= 1.00D+00 NAtFMM=   50 NAOKFM=F Big=F
 One-electron integrals computed using PRISM.
 NBasis=   288 RedAO= T  NBF=   288
 NBsUse=   288 1.00D-06 NBFU=   288
 Harris functional with IExCor=  402 diagonalized for initial guess.
 ExpMin= 1.03D-01 ExpMax= 8.59D+03 ExpMxC= 1.30D+03 IAcc=1 IRadAn=         1 AccDes= 0.00D+00
 HarFok:  IExCor=  402 AccDes= 0.00D+00 IRadAn=         1 IDoV= 1
 ScaDFX=  1.000000  1.000000  1.000000  1.000000
 FoFCou: FMM=F IPFlag=           0 FMFlag=      100000 FMFlg1=           0
         NFxFlg=           0 DoJE=T BraDBF=F KetDBF=T FulRan=T
         Omega=  0.000000  0.000000  1.000000  0.000000  0.000000 ICntrl=     500 IOpCl=  0
         NMat0=    1 NMatS0=    1 NMatT0=    0 NMatD0=    1 NMtDS0=    0 NMtDT0=    0
         I1Cent=           4 NGrid=           0.
 Petite list used in FoFCou.
 Initial guess orbital symmetries:
       Occupied  (A) (A) (A) (A) (A) (A) (A) (A) (A) (A) (A) (A)
                 (A) (A) (A) (A) (A) (A) (A) (A) (A) (A) (A) (A)
                 (A) (A) (A) (A) (A) (A) (A) (A) (A) (A) (A) (A)
                 (A) (A) (A) (A) (A) (A) (A) (A) (A) (A) (A) (A)
       Virtual   (A) (A) (A) (A) (A) (A) (A) (A) (A) (A) (A) (A)
                 (A) (A) (A) (A) (A) (A) (A) (A) (A) (A) (A) (A)
                 (A) (A) (A) (A) (A) (A) (A) (A) (A) (A) (A) (A)
                 (A) (A) (A) (A) (A) (A) (A) (A) (A) (A) (A) (A)
                 (A) (A) (A) (A) (A) (A) (A) (A) (A) (A) (A) (A)
                 (A) (A) (A) (A) (A) (A) (A) (A) (A) (A) (A) (A)
                 (A) (A) (A) (A) (A) (A) (A) (A) (A) (A) (A) (A)
                 (A) (A) (A) (A) (A) (A) (A) (A) (A) (A) (A) (A)
                 (A) (A) (A) (A) (A) (A) (A) (A) (A) (A) (A) (A)
                 (A) (A) (A) (A) (A) (A) (A) (A) (A) (A) (A) (A)
                 (A) (A) (A) (A) (A) (A) (A) (A) (A) (A) (A) (A)
                 (A) (A) (A) (A) (A) (A) (A) (A) (A) (A) (A) (A)
                 (A) (A) (A) (A) (A) (A) (A) (A) (A) (A) (A) (A)
                 (A) (A) (A) (A) (A) (A) (A) (A) (A) (A) (A) (A)
                 (A) (A) (A) (A) (A) (A) (A) (A) (A) (A) (A) (A)
                 (A) (A) (A) (A) (A) (A) (A) (A) (A) (A) (A) (A)
                 (A) (A) (A) (A) (A) (A) (A) (A) (A) (A) (A) (A)
                 (A) (A) (A) (A) (A) (A) (A) (A) (A) (A) (A) (A)
                 (A) (A) (A) (A) (A) (A) (A) (A) (A) (A) (A) (A)
                 (A) (A) (A) (A) (A) (A) (A) (A) (A) (A) (A) (A)
 The electronic state of the initial guess is 1-A.
 Requested convergence on RMS density matrix=1.00D-08 within 128 cycles.
 Requested convergence on MAX density matrix=1.00D-06.
 Requested convergence on             energy=1.00D-06.
 No special actions if energy rises.
 Keep R1 ints in memory in canonical form, NReq=1033417440.
 Integral accuracy reduced to 1.0D-05 until final iterations.
 Initial convergence to 1.0D-05 achieved.  Increase integral accuracy.
 SCF Done:  E(RB3LYP) =  -687.320939257     A.U. after   14 cycles
             Convg  =    0.5594D-08             -V/T =  2.0031

 **********************************************************************

            Population analysis using the SCF density.

 **********************************************************************

 Orbital symmetries:
       Occupied  (A) (A) (A) (A) (A) (A) (A) (A) (A) (A) (A) (A)
                 (A) (A) (A) (A) (A) (A) (A) (A) (A) (A) (A) (A)
                 (A) (A) (A) (A) (A) (A) (A) (A) (A) (A) (A) (A)
                 (A) (A) (A) (A) (A) (A) (A) (A) (A) (A) (A) (A)
       Virtual   (A) (A) (A) (A) (A) (A) (A) (A) (A) (A) (A) (A)
                 (A) (A) (A) (A) (A) (A) (A) (A) (A) (A) (A) (A)
                 (A) (A) (A) (A) (A) (A) (A) (A) (A) (A) (A) (A)
                 (A) (A) (A) (A) (A) (A) (A) (A) (A) (A) (A) (A)
                 (A) (A) (A) (A) (A) (A) (A) (A) (A) (A) (A) (A)
                 (A) (A) (A) (A) (A) (A) (A) (A) (A) (A) (A) (A)
                 (A) (A) (A) (A) (A) (A) (A) (A) (A) (A) (A) (A)
                 (A) (A) (A) (A) (A) (A) (A) (A) (A) (A) (A) (A)
                 (A) (A) (A) (A) (A) (A) (A) (A) (A) (A) (A) (A)
                 (A) (A) (A) (A) (A) (A) (A) (A) (A) (A) (A) (A)
                 (A) (A) (A) (A) (A) (A) (A) (A) (A) (A) (A) (A)
                 (A) (A) (A) (A) (A) (A) (A) (A) (A) (A) (A) (A)
                 (A) (A) (A) (A) (A) (A) (A) (A) (A) (A) (A) (A)
                 (A) (A) (A) (A) (A) (A) (A) (A) (A) (A) (A) (A)
                 (A) (A) (A) (A) (A) (A) (A) (A) (A) (A) (A) (A)
                 (A) (A) (A) (A) (A) (A) (A) (A) (A) (A) (A) (A)
                 (A) (A) (A) (A) (A) (A) (A) (A) (A) (A) (A) (A)
                 (A) (A) (A) (A) (A) (A) (A) (A) (A) (A) (A) (A)
                 (A) (A) (A) (A) (A) (A) (A) (A) (A) (A) (A) (A)
                 (A) (A) (A) (A) (A) (A) (A) (A) (A) (A) (A) (A)
 The electronic state is 1-A.
 Alpha  occ. eigenvalues --  -19.13824 -19.13427 -19.12296 -19.11796 -19.11454
 Alpha  occ. eigenvalues --  -19.11372 -10.26464 -10.24296 -10.23983 -10.23331
 Alpha  occ. eigenvalues --  -10.23119 -10.21819  -1.05921  -1.04743  -1.03520
 Alpha  occ. eigenvalues --   -1.03197  -1.01719  -1.01345  -0.79128  -0.76005
 Alpha  occ. eigenvalues --   -0.71483  -0.65643  -0.59387  -0.57401  -0.54828
 Alpha  occ. eigenvalues --   -0.53786  -0.53165  -0.52407  -0.50123  -0.48644
 Alpha  occ. eigenvalues --   -0.47745  -0.45458  -0.44294  -0.43375  -0.42142
 Alpha  occ. eigenvalues --   -0.41074  -0.37727  -0.36591  -0.35823  -0.35367
 Alpha  occ. eigenvalues --   -0.33836  -0.33618  -0.32339  -0.29739  -0.28635
 Alpha  occ. eigenvalues --   -0.27801  -0.26984  -0.25127
 Alpha virt. eigenvalues --   -0.03998   0.00028   0.01754   0.02660   0.03376
 Alpha virt. eigenvalues --    0.05983   0.06469   0.08141   0.10440   0.10814
 Alpha virt. eigenvalues --    0.12126   0.12793   0.14665   0.15581   0.16846
 Alpha virt. eigenvalues --    0.18537   0.19805   0.19923   0.22687   0.24633
 Alpha virt. eigenvalues --    0.26525   0.27551   0.29876   0.31585   0.35635
 Alpha virt. eigenvalues --    0.36514   0.37403   0.38277   0.38748   0.39128
 Alpha virt. eigenvalues --    0.40553   0.41511   0.43979   0.45611   0.46728
 Alpha virt. eigenvalues --    0.47267   0.48258   0.49169   0.50442   0.51451
 Alpha virt. eigenvalues --    0.51858   0.53344   0.53690   0.56482   0.57490
 Alpha virt. eigenvalues --    0.57882   0.60319   0.60415   0.61353   0.62645
 Alpha virt. eigenvalues --    0.63090   0.64539   0.66328   0.68499   0.71925
 Alpha virt. eigenvalues --    0.73126   0.77152   0.79191   0.79731   0.81119
 Alpha virt. eigenvalues --    0.82342   0.83322   0.85135   0.85714   0.86322
 Alpha virt. eigenvalues --    0.88156   0.88645   0.89949   0.92995   0.94260
 Alpha virt. eigenvalues --    0.95920   0.96656   0.97742   1.00330   1.03428
 Alpha virt. eigenvalues --    1.06565   1.07179   1.11326   1.12684   1.17511
 Alpha virt. eigenvalues --    1.19806   1.22289   1.25141   1.30323   1.32670
 Alpha virt. eigenvalues --    1.33143   1.34844   1.35680   1.37014   1.37667
 Alpha virt. eigenvalues --    1.38200   1.40485   1.41364   1.43691   1.44662
 Alpha virt. eigenvalues --    1.45412   1.46716   1.47934   1.48509   1.51858
 Alpha virt. eigenvalues --    1.51977   1.53322   1.54965   1.56184   1.57865
 Alpha virt. eigenvalues --    1.58338   1.59544   1.62632   1.62797   1.64014
 Alpha virt. eigenvalues --    1.64924   1.67253   1.68538   1.70432   1.72443
 Alpha virt. eigenvalues --    1.73362   1.74849   1.77109   1.82838   1.84134
 Alpha virt. eigenvalues --    1.86369   1.89264   1.90185   1.92050   1.93841
 Alpha virt. eigenvalues --    1.94378   1.96160   1.98254   1.99622   1.99939
 Alpha virt. eigenvalues --    2.03263   2.05110   2.07676   2.08597   2.09894
 Alpha virt. eigenvalues --    2.12049   2.16013   2.18649   2.20467   2.21515
 Alpha virt. eigenvalues --    2.24042   2.29217   2.33330   2.38888   2.40772
 Alpha virt. eigenvalues --    2.40979   2.41928   2.43724   2.44624   2.49005
 Alpha virt. eigenvalues --    2.50180   2.51751   2.52953   2.56248   2.58650
 Alpha virt. eigenvalues --    2.60365   2.64839   2.69306   2.70114   2.73365
 Alpha virt. eigenvalues --    2.77731   2.82460   2.83065   2.86019   2.87406
 Alpha virt. eigenvalues --    2.89703   2.90730   2.92561   2.94267   2.96999
 Alpha virt. eigenvalues --    3.01160   3.03063   3.06385   3.08087   3.10015
 Alpha virt. eigenvalues --    3.11535   3.12058   3.14317   3.16499   3.17414
 Alpha virt. eigenvalues --    3.19628   3.20026   3.21770   3.24642   3.25352
 Alpha virt. eigenvalues --    3.28279   3.30012   3.31055   3.32426   3.34056
 Alpha virt. eigenvalues --    3.43087   3.48650   3.58385   3.72069   3.76337
 Alpha virt. eigenvalues --    3.78119   3.78562   3.80322   3.81546   3.84246
 Alpha virt. eigenvalues --    3.87536   3.89255   3.90861   3.92085   3.92515
 Alpha virt. eigenvalues --    4.01837   4.03894   4.08120   4.20454   4.34620
 Alpha virt. eigenvalues --    4.83676   4.86581   4.91154   4.93454   4.95549
 Alpha virt. eigenvalues --    5.01364   5.02434   5.22796   5.24782   5.26069
 Alpha virt. eigenvalues --    5.27591   5.30319   5.55865   5.58594   5.61285
 Alpha virt. eigenvalues --    5.62439   5.64727   5.66133  23.67197  23.75431
 Alpha virt. eigenvalues --   23.77346  23.79386  23.79770  23.82285  49.86315
 Alpha virt. eigenvalues --   49.87406  49.89964  49.90470  49.92463  49.96220
          Condensed to atoms (all electrons):
              1          2          3          4          5          6
     1  C    5.050047   0.257374  -0.034405   0.385674   0.380495   0.199348
     2  O    0.257374   7.911810   0.302624  -0.030099  -0.023401  -0.038451
     3  H   -0.034405   0.302624   0.499351  -0.005982  -0.004760   0.010584
     4  H    0.385674  -0.030099  -0.005982   0.604222  -0.030784  -0.051443
     5  H    0.380495  -0.023401  -0.004760  -0.030784   0.566739  -0.038788
     6  C    0.199348  -0.038451   0.010584  -0.051443  -0.038788   4.959075
     7  O   -0.089291   0.004168  -0.000069   0.001211   0.001225   0.651327
     8  C   -0.122888   0.002393  -0.000665   0.012784   0.009537   0.216009
     9  C    0.008312  -0.000017   0.000057  -0.003544  -0.014736  -0.052810
    10  C   -0.000163   0.000000  -0.000005   0.000472   0.001979   0.004874
    11  C   -0.000048   0.000000   0.000000  -0.000030  -0.000236   0.000191
    12  H    0.000030   0.000000   0.000000  -0.000090   0.000012  -0.000011
    13  H    0.000010   0.000000   0.000000   0.000014  -0.000149  -0.000038
    14  O    0.000000   0.000000   0.000000   0.000000   0.000000   0.000000
    15  H    0.000000   0.000000   0.000000   0.000000   0.000000   0.000000
    16  H    0.008304  -0.000125   0.000032   0.000140  -0.000641  -0.024437
    17  O    0.003905  -0.000006   0.000010   0.000009   0.000209  -0.050546
    18  H   -0.000209   0.000004  -0.000001  -0.000118  -0.000030   0.002534
    19  H   -0.002813  -0.000328   0.000007   0.006028   0.001845  -0.007364
    20  O   -0.013744   0.000237  -0.000069  -0.001251   0.029474   0.002544
    21  H    0.008364  -0.000635  -0.000090  -0.000395  -0.004050  -0.002366
    22  H   -0.000114   0.000000   0.000000   0.000018  -0.000038   0.000822
    23  O   -0.000031   0.000000   0.000000  -0.000007  -0.000047   0.000525
    24  H   -0.000002   0.000000   0.000000   0.000001   0.000011   0.000038
              7          8          9         10         11         12
     1  C   -0.089291  -0.122888   0.008312  -0.000163  -0.000048   0.000030
     2  O    0.004168   0.002393  -0.000017   0.000000   0.000000   0.000000
     3  H   -0.000069  -0.000665   0.000057  -0.000005   0.000000   0.000000
     4  H    0.001211   0.012784  -0.003544   0.000472  -0.000030  -0.000090
     5  H    0.001225   0.009537  -0.014736   0.001979  -0.000236   0.000012
     6  C    0.651327   0.216009  -0.052810   0.004874   0.000191  -0.000011
     7  O    7.779337  -0.072871   0.004677  -0.000133   0.000001   0.000000
     8  C   -0.072871   5.279921   0.151962  -0.017132   0.009163  -0.000639
     9  C    0.004677   0.151962   5.539825   0.108361  -0.072914   0.012841
    10  C   -0.000133  -0.017132   0.108361   5.220059   0.306311  -0.048709
    11  C    0.000001   0.009163  -0.072914   0.306311   4.806150   0.382131
    12  H    0.000000  -0.000639   0.012841  -0.048709   0.382131   0.671168
    13  H    0.000000  -0.000484  -0.005268  -0.041788   0.384140  -0.046592
    14  O    0.000000  -0.000054   0.003262  -0.052217   0.281043  -0.039492
    15  H    0.000000   0.000019  -0.000734   0.010136  -0.034790  -0.006777
    16  H    0.003304   0.361080  -0.041357  -0.012196   0.000874  -0.000141
    17  O    0.000528   0.253275  -0.080743   0.014493  -0.000056  -0.000089
    18  H    0.001962  -0.024560   0.005196   0.001798   0.000114  -0.000010
    19  H   -0.000027  -0.051687   0.369695  -0.030361  -0.004627   0.004530
    20  O   -0.000049  -0.041279   0.204176  -0.057019   0.000538  -0.000602
    21  H    0.000060   0.011344  -0.024214  -0.002021   0.002246  -0.000594
    22  H   -0.000012  -0.008617  -0.036055   0.363220  -0.043911  -0.012338
    23  O    0.000000   0.009791  -0.079266   0.248476  -0.051978   0.005495
    24  H   -0.000002   0.001772   0.005734  -0.029589   0.003839  -0.000198
             13         14         15         16         17         18
     1  C    0.000010   0.000000   0.000000   0.008304   0.003905  -0.000209
     2  O    0.000000   0.000000   0.000000  -0.000125  -0.000006   0.000004
     3  H    0.000000   0.000000   0.000000   0.000032   0.000010  -0.000001
     4  H    0.000014   0.000000   0.000000   0.000140   0.000009  -0.000118
     5  H   -0.000149   0.000000   0.000000  -0.000641   0.000209  -0.000030
     6  C   -0.000038   0.000000   0.000000  -0.024437  -0.050546   0.002534
     7  O    0.000000   0.000000   0.000000   0.003304   0.000528   0.001962
     8  C   -0.000484  -0.000054   0.000019   0.361080   0.253275  -0.024560
     9  C   -0.005268   0.003262  -0.000734  -0.041357  -0.080743   0.005196
    10  C   -0.041788  -0.052217   0.010136  -0.012196   0.014493   0.001798
    11  C    0.384140   0.281043  -0.034790   0.000874  -0.000056   0.000114
    12  H   -0.046592  -0.039492  -0.006777  -0.000141  -0.000089  -0.000010
    13  H    0.612580  -0.035178  -0.005318   0.000150  -0.000052   0.000007
    14  O   -0.035178   7.927090   0.308834  -0.000009   0.000001  -0.000003
    15  H   -0.005318   0.308834   0.491351   0.000001   0.000000   0.000001
    16  H    0.000150  -0.000009   0.000001   0.563327  -0.023038  -0.017572
    17  O   -0.000052   0.000001   0.000000  -0.023038   7.941551   0.313345
    18  H    0.000007  -0.000003   0.000001  -0.017572   0.313345   0.461403
    19  H    0.000101  -0.000282  -0.000036   0.013265   0.007044  -0.001220
    20  O    0.016255   0.000035   0.000014   0.004622   0.001389  -0.000265
    21  H    0.001226  -0.000031   0.000001  -0.001481  -0.000424   0.000064
    22  H    0.014200   0.009210  -0.000714   0.001530   0.014973  -0.001034
    23  O    0.002399   0.003424  -0.000072   0.018013  -0.000611   0.000492
    24  H   -0.001284   0.003055  -0.000010  -0.001646   0.000416   0.000525
             19         20         21         22         23         24
     1  C   -0.002813  -0.013744   0.008364  -0.000114  -0.000031  -0.000002
     2  O   -0.000328   0.000237  -0.000635   0.000000   0.000000   0.000000
     3  H    0.000007  -0.000069  -0.000090   0.000000   0.000000   0.000000
     4  H    0.006028  -0.001251  -0.000395   0.000018  -0.000007   0.000001
     5  H    0.001845   0.029474  -0.004050  -0.000038  -0.000047   0.000011
     6  C   -0.007364   0.002544  -0.002366   0.000822   0.000525   0.000038
     7  O   -0.000027  -0.000049   0.000060  -0.000012   0.000000  -0.000002
     8  C   -0.051687  -0.041279   0.011344  -0.008617   0.009791   0.001772
     9  C    0.369695   0.204176  -0.024214  -0.036055  -0.079266   0.005734
    10  C   -0.030361  -0.057019  -0.002021   0.363220   0.248476  -0.029589
    11  C   -0.004627   0.000538   0.002246  -0.043911  -0.051978   0.003839
    12  H    0.004530  -0.000602  -0.000594  -0.012338   0.005495  -0.000198
    13  H    0.000101   0.016255   0.001226   0.014200   0.002399  -0.001284
    14  O   -0.000282   0.000035  -0.000031   0.009210   0.003424   0.003055
    15  H   -0.000036   0.000014   0.000001  -0.000714  -0.000072  -0.000010
    16  H    0.013265   0.004622  -0.001481   0.001530   0.018013  -0.001646
    17  O    0.007044   0.001389  -0.000424   0.014973  -0.000611   0.000416
    18  H   -0.001220  -0.000265   0.000064  -0.001034   0.000492   0.000525
    19  H    0.644341  -0.034577  -0.026702  -0.000806   0.004582  -0.000721
    20  O   -0.034577   7.976930   0.301730   0.004211   0.001391  -0.000339
    21  H   -0.026702   0.301730   0.498113  -0.000210  -0.000397   0.000007
    22  H   -0.000806   0.004211  -0.000210   0.618115  -0.027134  -0.016424
    23  O    0.004582   0.001391  -0.000397  -0.027134   7.949460   0.310520
    24  H   -0.000721  -0.000339   0.000007  -0.016424   0.310520   0.475567
 Mulliken atomic charges:
              1
     1  C   -0.038153
     2  O   -0.385547
     3  H    0.233381
     4  H    0.113173
     5  H    0.126134
     6  C    0.218384
     7  O   -0.285347
     8  C    0.021825
     9  C   -0.002439
    10  C    0.011154
    11  C    0.031849
    12  H    0.080077
    13  H    0.105069
    14  O   -0.408688
    15  H    0.238096
    16  H    0.148000
    17  O   -0.395580
    18  H    0.257581
    19  H    0.110112
    20  O   -0.394351
    21  H    0.240457
    22  H    0.121108
    23  O   -0.395025
    24  H    0.248731
 Sum of Mulliken atomic charges =   0.00000
 Mulliken charges with hydrogens summed into heavy atoms:
              1
     1  C    0.201154
     2  O   -0.152166
     6  C    0.218384
     7  O   -0.285347
     8  C    0.169825
     9  C    0.107673
    10  C    0.132262
    11  C    0.216995
    14  O   -0.170593
    17  O   -0.137999
    20  O   -0.153894
    23  O   -0.146294
 Sum of Mulliken charges with hydrogens summed into heavy atoms =   0.00000
 Electronic spatial extent (au):  <R**2>=           2755.9781
 Charge=              0.0000 electrons
 Dipole moment (field-independent basis, Debye):
    X=              3.2403    Y=             -3.1905    Z=             -2.1279  Tot=              5.0206
 Quadrupole moment (field-independent basis, Debye-Ang):
   XX=            -85.4821   YY=            -53.5815   ZZ=            -75.2706
   XY=              7.7515   XZ=             -2.6310   YZ=              6.2154
 Traceless Quadrupole moment (field-independent basis, Debye-Ang):
   XX=            -14.0374   YY=             17.8632   ZZ=             -3.8259
   XY=              7.7515   XZ=             -2.6310   YZ=              6.2154
 Octapole moment (field-independent basis, Debye-Ang**2):
  XXX=             83.7703  YYY=             -0.0781  ZZZ=             -0.5065  XYY=              7.8171
  XXY=            -58.6561  XXZ=            -17.9816  XZZ=             -4.1115  YZZ=             -1.7540
  YYZ=              2.1421  XYZ=              3.0381
 Hexadecapole moment (field-independent basis, Debye-Ang**3):
 XXXX=          -2610.1424 YYYY=           -424.7032 ZZZZ=           -213.6878 XXXY=            -16.5558
 XXXZ=            -10.7413 YYYX=             90.4963 YYYZ=             12.7532 ZZZX=             -3.3587
 ZZZY=              6.5382 XXYY=           -380.2673 XXZZ=           -453.2666 YYZZ=           -132.9839
 XXYZ=             37.1172 YYXZ=             13.6767 ZZXY=              4.1167
 N-N= 7.798043416485D+02 E-N=-3.175722971101D+03  KE= 6.852095655972D+02
 Calling FoFJK, ICntrl=      2127 FMM=F ISym2X=0 I1Cent= 0 IOpClX= 0 NMat=1 NMatS=1 NMatT=0.
 ***** Axes restored to original set *****
 -------------------------------------------------------------------
 Center     Atomic                   Forces (Hartrees/Bohr)
 Number     Number              X              Y              Z
 -------------------------------------------------------------------
      1        6           0.004475384    0.004524521    0.023592266
      2        8           0.004457439   -0.002261172    0.009562713
      3        1          -0.010932584    0.000266507   -0.003750106
      4        1           0.001018708   -0.002860279   -0.009348457
      5        1          -0.003095109   -0.001760218   -0.003906019
      6        6          -0.023220447   -0.001497061    0.032724326
      7        8           0.031003606    0.001772032   -0.030831185
      8        6          -0.011874035    0.006953412   -0.012523847
      9        6           0.010894905   -0.012595616   -0.000106336
     10        6           0.009784324    0.000053408   -0.007251516
     11        6           0.011667683    0.007913678   -0.006807064
     12        1           0.000168815   -0.002072438    0.009203623
     13        1          -0.001597178    0.000848281    0.007931263
     14        8           0.001594433   -0.003615301   -0.009328908
     15        1          -0.010897572    0.000402218    0.004605999
     16        1           0.007881860    0.006201106    0.000972270
     17        8          -0.011612766   -0.004814471   -0.007947702
     18        1           0.010665532   -0.005816227    0.007111090
     19        1          -0.004677522   -0.005419541   -0.004885670
     20        8           0.010766324    0.008497676    0.000932870
     21        1          -0.010052875    0.006048626   -0.008752378
     22        1          -0.012216524    0.003433061    0.005712617
     23        8          -0.015401084   -0.009394875   -0.001056944
     24        1           0.011198683    0.005192671    0.004147095
 -------------------------------------------------------------------
 Cartesian Forces:  Max     0.032724326 RMS     0.010276024

 GradGradGradGradGradGradGradGradGradGradGradGradGradGradGradGradGradGrad
 Berny optimization.
 Internal  Forces:  Max     0.043464758 RMS     0.009085529
 Search for a local minimum.
 Step number   1 out of a maximum of  125
 All quantities printed in internal units (Hartrees-Bohrs-Radians)
 Mixed Optimization -- RFO/linear search
 Second derivative matrix not updated -- first step.
 ITU=  0
     Eigenvalues ---    0.00235   0.00287   0.00383   0.00400   0.00474
     Eigenvalues ---    0.00546   0.01330   0.01367   0.01374   0.01398
     Eigenvalues ---    0.01513   0.03721   0.04408   0.04529   0.04671
     Eigenvalues ---    0.04838   0.05219   0.05249   0.05567   0.06358
     Eigenvalues ---    0.07013   0.07362   0.07684   0.08477   0.11472
     Eigenvalues ---    0.11550   0.13692   0.13970   0.16000   0.16000
     Eigenvalues ---    0.16000   0.16000   0.16000   0.16590   0.17760
     Eigenvalues ---    0.18266   0.19825   0.19831   0.20268   0.22028
     Eigenvalues ---    0.22170   0.24991   0.25000   0.28507   0.28855
     Eigenvalues ---    0.29519   0.29643   0.30691   0.33939   0.34160
     Eigenvalues ---    0.34212   0.34235   0.34424   0.34470   0.34557
     Eigenvalues ---    0.41374   0.41777   0.41860   0.42126   0.43452
     Eigenvalues ---    0.52821   0.52872   0.52885   0.52899   0.52984
     Eigenvalues ---    0.90276
 RFO step:  Lambda=-3.63251813D-02 EMin= 2.34970769D-03
 Linear search not attempted -- first point.
 Maximum step size (   0.300) exceeded in Quadratic search.
    -- Step size scaled by   0.899
 Iteration  1 RMS(Cart)=  0.24816844 RMS(Int)=  0.01220361
 Iteration  2 RMS(Cart)=  0.03221046 RMS(Int)=  0.00073067
 Iteration  3 RMS(Cart)=  0.00053390 RMS(Int)=  0.00070903
 Iteration  4 RMS(Cart)=  0.00000032 RMS(Int)=  0.00070903
 Variable       Old X    -DE/DX   Delta X   Delta X   Delta X     New X
                                 (Linear)    (Quad)   (Total)
    R1        2.67116   0.00581   0.00000   0.01110   0.01110   2.68225
    R2        2.06543   0.00581   0.00000   0.01370   0.01370   2.07913
    R3        2.06400  -0.00167   0.00000  -0.00393  -0.00393   2.06006
    R4        2.86607   0.00182   0.00000   0.00476   0.00476   2.87083
    R5        1.83773  -0.01155   0.00000  -0.01838  -0.01838   1.81936
    R6        2.32806  -0.04346   0.00000  -0.04160  -0.04160   2.28646
    R7        2.88681   0.01836   0.00000   0.04959   0.04959   2.93640
    R8        2.90306   0.00403   0.00000   0.01114   0.01114   2.91420
    R9        2.06974   0.00011   0.00000   0.00025   0.00025   2.06999
   R10        2.68763   0.00941   0.00000   0.01849   0.01849   2.70612
   R11        2.91044  -0.00649   0.00000  -0.01815  -0.01815   2.89229
   R12        2.07433   0.00072   0.00000   0.00171   0.00171   2.07605
   R13        2.69207   0.00978   0.00000   0.01935   0.01935   2.71142
   R14        2.88932  -0.00181   0.00000  -0.00490  -0.00490   2.88442
   R15        2.07060  -0.00008   0.00000  -0.00019  -0.00019   2.07041
   R16        2.69728  -0.00202   0.00000  -0.00404  -0.00404   2.69324
   R17        2.06935   0.00373   0.00000   0.00886   0.00886   2.07821
   R18        2.06621   0.00161   0.00000   0.00379   0.00379   2.07000
   R19        2.69101   0.00620   0.00000   0.01225   0.01225   2.70326
   R20        1.83748  -0.01180   0.00000  -0.01877  -0.01877   1.81871
   R21        1.83821  -0.01376   0.00000  -0.02190  -0.02190   1.81631
   R22        1.83668  -0.01416   0.00000  -0.02248  -0.02248   1.81420
   R23        1.83761  -0.01267   0.00000  -0.02015  -0.02015   1.81746
    A1        1.89497   0.00688   0.00000   0.03603   0.03559   1.93056
    A2        1.89387   0.00717   0.00000   0.03959   0.03924   1.93312
    A3        1.92697  -0.00774   0.00000  -0.02490  -0.02476   1.90221
    A4        1.92656  -0.00108   0.00000  -0.00837  -0.00948   1.91708
    A5        1.91043  -0.00292   0.00000  -0.02341  -0.02341   1.88702
    A6        1.91099  -0.00221   0.00000  -0.01823  -0.01820   1.89280
    A7        1.87619  -0.00053   0.00000  -0.00244  -0.00244   1.87375
    A8        2.11798  -0.01270   0.00000  -0.04012  -0.04032   2.07766
    A9        2.04303   0.03715   0.00000   0.11637   0.11619   2.15922
   A10        2.12188  -0.02448   0.00000  -0.07712  -0.07729   2.04459
   A11        2.01561   0.03384   0.00000   0.13115   0.13183   2.14745
   A12        1.86411  -0.00794   0.00000  -0.02436  -0.02350   1.84061
   A13        1.89282  -0.01496   0.00000  -0.05608  -0.05502   1.83780
   A14        1.92887  -0.01208   0.00000  -0.05443  -0.05461   1.87426
   A15        1.88958  -0.01078   0.00000  -0.04019  -0.03922   1.85036
   A16        1.86730   0.01082   0.00000   0.03955   0.03778   1.90508
   A17        2.01558  -0.01626   0.00000  -0.08125  -0.08173   1.93385
   A18        1.85915   0.00446   0.00000   0.02833   0.02591   1.88506
   A19        1.92822   0.01018   0.00000   0.03285   0.02952   1.95774
   A20        1.87740   0.00173   0.00000  -0.00867  -0.00807   1.86933
   A21        1.91801  -0.00202   0.00000  -0.02495  -0.02494   1.89307
   A22        1.85723   0.00339   0.00000   0.06691   0.06567   1.92290
   A23        1.95210  -0.00360   0.00000  -0.00610  -0.00589   1.94621
   A24        1.93255  -0.00330   0.00000  -0.02940  -0.02996   1.90259
   A25        1.91878   0.00076   0.00000  -0.00500  -0.00532   1.91346
   A26        1.77467   0.00758   0.00000   0.06153   0.06176   1.83644
   A27        1.89175   0.00273   0.00000   0.01757   0.01756   1.90930
   A28        1.99016  -0.00381   0.00000  -0.03358  -0.03493   1.95523
   A29        1.93950  -0.00311   0.00000  -0.02956  -0.02962   1.90987
   A30        1.95260  -0.00325   0.00000  -0.02585  -0.02570   1.92691
   A31        1.89918  -0.01174   0.00000  -0.03812  -0.03794   1.86124
   A32        1.91100   0.00041   0.00000  -0.00022  -0.00214   1.90886
   A33        1.88009   0.00815   0.00000   0.04050   0.03952   1.91961
   A34        1.87901   0.01034   0.00000   0.05846   0.05784   1.93685
   A35        1.86806   0.00144   0.00000   0.00661   0.00661   1.87467
   A36        1.88091   0.00323   0.00000   0.01477   0.01477   1.89567
   A37        1.88426   0.00235   0.00000   0.01075   0.01075   1.89501
   A38        1.88332   0.00166   0.00000   0.00760   0.00760   1.89091
    D1        1.04720   0.00376   0.00000   0.02112   0.02192   1.06911
    D2       -1.04720  -0.00309   0.00000  -0.01274  -0.01352  -1.06072
    D3        3.14159  -0.00019   0.00000  -0.00010  -0.00011   3.14148
    D4       -0.02957   0.00129   0.00000   0.02507   0.02486  -0.00471
    D5        3.13798   0.00313   0.00000   0.06364   0.06377  -3.08144
    D6        2.05550   0.00316   0.00000   0.03945   0.03920   2.09470
    D7       -1.06014   0.00500   0.00000   0.07802   0.07811  -0.98203
    D8       -2.11363  -0.00139   0.00000   0.00305   0.00300  -2.11062
    D9        1.05392   0.00046   0.00000   0.04162   0.04191   1.09583
   D10       -0.02602  -0.00010   0.00000  -0.02634  -0.02530  -0.05132
   D11       -2.17862  -0.00117   0.00000  -0.02554  -0.02553  -2.20415
   D12        2.09755  -0.00240   0.00000  -0.03168  -0.03220   2.06535
   D13        3.14159   0.00155   0.00000   0.01172   0.01241  -3.12919
   D14        0.98899   0.00048   0.00000   0.01253   0.01219   1.00117
   D15       -1.01803  -0.00074   0.00000   0.00638   0.00551  -1.01252
   D16        3.12086  -0.00411   0.00000  -0.04446  -0.04418   3.07668
   D17        1.03783   0.00041   0.00000  -0.00429  -0.00354   1.03428
   D18       -0.97232  -0.01118   0.00000  -0.11543  -0.11577  -1.08809
   D19       -1.04426   0.00052   0.00000  -0.02398  -0.02475  -1.06901
   D20       -3.12730   0.00505   0.00000   0.01618   0.01589  -3.11141
   D21        1.14574  -0.00654   0.00000  -0.09495  -0.09634   1.04940
   D22        0.99555   0.00049   0.00000  -0.03035  -0.02971   0.96585
   D23       -1.08748   0.00501   0.00000   0.00982   0.01093  -1.07655
   D24       -3.09763  -0.00658   0.00000  -0.10131  -0.10130   3.08426
   D25        2.00493  -0.01348   0.00000  -0.07035  -0.07102   1.93391
   D26       -2.07914   0.01167   0.00000   0.02941   0.03031  -2.04883
   D27        0.00000  -0.00241   0.00000  -0.03461  -0.03484  -0.03484
   D28       -3.12566  -0.00054   0.00000  -0.02364  -0.02308   3.13445
   D29       -1.15972   0.00469   0.00000   0.03063   0.03097  -1.12875
   D30        1.05505  -0.00213   0.00000  -0.03841  -0.03774   1.01731
   D31       -1.05269  -0.00376   0.00000  -0.04446  -0.04400  -1.09670
   D32        0.91324   0.00148   0.00000   0.00981   0.01004   0.92329
   D33        3.12801  -0.00535   0.00000  -0.05924  -0.05866   3.06935
   D34        0.96229   0.00016   0.00000   0.01699   0.01609   0.97837
   D35        2.92823   0.00539   0.00000   0.07126   0.07013   2.99836
   D36       -1.14019  -0.00143   0.00000   0.00222   0.00143  -1.13876
   D37        2.01135   0.01115   0.00000   0.09890   0.10031   2.11166
   D38       -2.02772  -0.00397   0.00000  -0.00173  -0.00214  -2.02986
   D39        0.00000  -0.00110   0.00000   0.01209   0.01110   0.01110
   D40        1.09888  -0.00336   0.00000  -0.04374  -0.04369   1.05519
   D41       -1.04308   0.00070   0.00000  -0.00348  -0.00356  -1.04663
   D42       -3.11698  -0.00254   0.00000  -0.03548  -0.03536   3.13084
   D43       -0.96377  -0.00217   0.00000  -0.04148  -0.04121  -1.00498
   D44       -3.10572   0.00188   0.00000  -0.00121  -0.00108  -3.10680
   D45        1.10356  -0.00136   0.00000  -0.03321  -0.03289   1.07067
   D46       -3.06614  -0.00286   0.00000  -0.04205  -0.04230  -3.10844
   D47        1.07509   0.00120   0.00000  -0.00178  -0.00217   1.07292
   D48       -0.99882  -0.00204   0.00000  -0.03379  -0.03397  -1.03279
   D49       -2.18207  -0.00018   0.00000  -0.00714  -0.00747  -2.18954
   D50        1.96255   0.00203   0.00000  -0.00777  -0.00812   1.95443
   D51        0.00000  -0.00685   0.00000  -0.07561  -0.07493  -0.07493
   D52       -3.13543   0.00008   0.00000  -0.00004  -0.00010  -3.13553
   D53       -1.03109  -0.00561   0.00000  -0.03371  -0.03515  -1.06624
   D54        1.02827   0.00469   0.00000   0.01857   0.02006   1.04833
         Item               Value     Threshold  Converged?
 Maximum Force            0.043465     0.000450     NO 
 RMS     Force            0.009086     0.000300     NO 
 Maximum Displacement     0.960471     0.001800     NO 
 RMS     Displacement     0.268314     0.001200     NO 
 Predicted change in Energy=-2.146206D-02
 GradGradGradGradGradGradGradGradGradGradGradGradGradGradGradGradGradGrad

                          Input orientation:                          
 ---------------------------------------------------------------------
 Center     Atomic      Atomic             Coordinates (Angstroms)
 Number     Number       Type             X           Y           Z
 ---------------------------------------------------------------------
      1          6           0       -0.066935   -0.033703    0.299600
      2          8           0       -0.404851   -0.122969    1.675284
      3          1           0        0.419227   -0.163363    2.171441
      4          1           0        0.498442   -0.922219   -0.018823
      5          1           0        0.516120    0.866083    0.102537
      6          6           0       -1.344408    0.032133   -0.519928
      7          8           0       -2.410757   -0.001961    0.050767
      8          6           0       -1.372161    0.058549   -2.073333
      9          6           0       -0.094697    0.086476   -2.936732
     10          6           0       -0.443144    0.015661   -4.425393
     11          6           0        0.810132    0.052361   -5.295883
     12          1           0        1.449358   -0.809014   -5.053283
     13          1           0        1.368153    0.978983   -5.123039
     14          8           0        0.368433   -0.033640   -6.653766
     15          1           0        1.151568   -0.016959   -7.212939
     16          1           0       -1.966662    0.939146   -2.339799
     17          8           0       -2.083772   -1.122896   -2.458650
     18          1           0       -2.930351   -0.863000   -2.832236
     19          1           0        0.494916   -0.809728   -2.699900
     20          8           0        0.687208    1.267726   -2.708717
     21          1           0        1.559662    1.003572   -2.407536
     22          1           0       -0.911805   -0.951873   -4.636590
     23          8           0       -1.291618    1.107360   -4.771065
     24          1           0       -2.084438    0.754889   -5.186011
 ---------------------------------------------------------------------
                    Distance matrix (angstroms):
                    1          2          3          4          5
     1  C    0.000000
     2  O    1.419387   0.000000
     3  H    1.938286   0.962761   0.000000
     4  H    1.100230   2.079600   2.319352   0.000000
     5  H    1.090139   2.073631   2.312901   1.792503   0.000000
     6  C    1.519177   2.392860   3.223677   2.134944   2.131783
     7  O    2.357207   2.584058   3.540073   3.052073   3.053324
     8  C    2.709785   3.875663   4.612637   2.946535   2.992010
     9  C    3.238682   4.627176   5.140036   3.143799   3.196567
    10  C    4.740204   6.102371   6.655370   4.602614   4.705906
    11  C    5.664459   7.078425   7.480660   5.375344   5.467314
    12  H    5.617260   7.013014   7.326300   5.124729   5.500851
    13  H    5.700002   7.111612   7.444115   5.515794   5.295786
    14  O    6.966983   8.365347   8.826307   6.695442   6.817547
    15  H    7.610734   9.024089   9.414051   7.280204   7.395927
    16  H    3.394382   4.437142   5.221042   3.863721   3.483468
    17  O    3.586352   4.572531   5.350089   3.558209   4.156339
    18  H    4.323804   5.219533   6.061844   4.435698   4.845697
    19  H    3.148792   4.519231   4.914619   2.683438   3.265340
    20  O    3.363395   4.727165   5.092718   3.473762   2.844949
    21  H    3.324206   4.668814   4.861004   3.246661   2.721828
    22  H    5.091446   6.386223   6.981596   4.828400   5.272880
    23  O    5.339806   6.622347   7.262239   5.468757   5.203665
    24  H    5.897807   7.118217   7.825831   6.015296   5.894405
                    6          7          8          9         10
     6  C    0.000000
     7  O    1.209940   0.000000
     8  C    1.553877   2.365193   0.000000
     9  C    2.721336   3.781151   1.542126   0.000000
    10  C    4.008141   4.889561   2.529248   1.530536   0.000000
    11  C    5.239484   6.242094   3.891950   2.526949   1.526369
    12  H    5.391100   6.450050   4.194490   2.768717   2.157754
    13  H    5.426153   6.481564   4.202050   2.777847   2.166910
    14  O    6.368840   7.257800   4.900871   3.747700   2.372075
    15  H    7.143437   8.090229   5.726296   4.455313   3.211633
    16  H    2.126453   2.607241   1.095393   2.141875   2.742924
    17  O    2.374741   2.767777   1.432017   2.376460   2.802864
    18  H    2.943339   3.053370   1.962942   2.992216   3.081621
    19  H    2.973906   4.081861   2.152317   1.098596   2.130387
    20  O    3.231865   4.338691   2.471199   1.434824   2.406728
    21  H    3.597274   4.776879   3.098443   1.964184   3.009809
    22  H    4.254682   5.012036   2.793416   2.152987   1.095613
    23  O    4.385324   5.072783   2.895557   2.416526   1.425203
    24  H    4.779367   5.301240   3.268179   3.076540   1.954186
                   11         12         13         14         15
    11  C    0.000000
    12  H    1.099741   0.000000
    13  H    1.095395   1.791199   0.000000
    14  O    1.430504   2.081142   2.089969   0.000000
    15  H    1.948457   2.319514   2.325187   0.962420   0.000000
    16  H    4.151555   4.699814   4.343846   5.000929   5.863871
    17  O    4.219692   4.394730   4.840728   4.979838   5.856089
    18  H    4.571505   4.910990   5.207476   5.116044   6.047182
    19  H    2.753486   2.539562   3.135862   4.031299   4.628952
    20  O    2.861058   3.223463   2.525076   4.166364   4.706810
    21  H    3.131956   3.208989   2.722358   4.530486   4.929495
    22  H    2.099577   2.401903   3.027052   2.559524   3.430619
    23  O    2.409525   3.356350   2.686027   2.757211   3.632629
    24  H    2.980630   3.866669   3.460428   2.965242   3.895628
                   16         17         18         19         20
    16  H    0.000000
    17  O    2.068782   0.000000
    18  H    2.102123   0.961150   0.000000
    19  H    3.040986   2.608813   3.428236   0.000000
    20  O    2.699461   3.668234   4.200236   2.086353   0.000000
    21  H    3.527563   4.218897   4.881053   2.123021   0.960034
    22  H    3.156569   2.479149   2.708896   2.397882   3.346664
    23  O    2.528841   3.308899   3.213538   3.340158   2.862647
    24  H    2.854600   3.311280   2.978824   3.909199   3.752600
                   21         22         23         24
    21  H    0.000000
    22  H    3.860129   0.000000
    23  O    3.704975   2.098281   0.000000
    24  H    4.589252   2.142421   0.961759   0.000000
 Stoichiometry    C6H12O6
 Framework group  C1[X(C6H12O6)]
 Deg. of freedom    66
 Full point group                 C1      NOp   1
 Largest Abelian subgroup         C1      NOp   1
 Largest concise Abelian subgroup C1      NOp   1
                         Standard orientation:                         
 ---------------------------------------------------------------------
 Center     Atomic      Atomic             Coordinates (Angstroms)
 Number     Number       Type             X           Y           Z
 ---------------------------------------------------------------------
      1          6           0       -2.711517   -0.979206   -0.215272
      2          8           0       -4.127542   -0.881841   -0.207981
      3          1           0       -4.476419   -1.752086   -0.426770
      4          1           0       -2.348329   -1.269165   -1.212530
      5          1           0       -2.369998   -1.700767    0.527101
      6          6           0       -2.120948    0.378148    0.126367
      7          8           0       -2.867094    1.306081    0.341222
      8          6           0       -0.596142    0.677086    0.138032
      9          6           0        0.473840   -0.399543   -0.134294
     10          6           0        1.874795    0.216710   -0.144141
     11          6           0        2.948068   -0.837382   -0.402556
     12          1           0        2.773451   -1.304573   -1.382695
     13          1           0        2.922815   -1.607060    0.376449
     14          8           0        4.203571   -0.151779   -0.404444
     15          1           0        4.888878   -0.806348   -0.572208
     16          1           0       -0.389357    1.101436    1.126492
     17          8           0       -0.401706    1.688087   -0.857329
     18          1           0       -0.165647    2.509736   -0.418036
     19          1           0        0.294543   -0.810470   -1.137242
     20          8           0        0.446198   -1.449749    0.842958
     21          1           0        0.285580   -2.282313    0.392731
     22          1           0        1.950941    0.916549   -0.983662
     23          8           0        2.127112    0.852417    1.106226
     24          1           0        2.380657    1.764463    0.936326
 ---------------------------------------------------------------------
 Rotational constants (GHZ):      2.0156449      0.4203725      0.3792571
 Standard basis: 6-311G(d,p) (5D, 7F)
 There are   288 symmetry adapted basis functions of A   symmetry.
 Integral buffers will be    131072 words long.
 Raffenetti 2 integral format.
 Two-electron integral symmetry is turned on.
   288 basis functions,   480 primitive gaussians,   300 cartesian basis functions
    48 alpha electrons       48 beta electrons
       nuclear repulsion energy       774.7564020781 Hartrees.
 NAtoms=   24 NActive=   24 NUniq=   24 SFac= 1.00D+00 NAtFMM=   50 NAOKFM=F Big=F
 One-electron integrals computed using PRISM.
 NBasis=   288 RedAO= T  NBF=   288
 NBsUse=   288 1.00D-06 NBFU=   288
 Initial guess read from the read-write file.
 B after Tr=     0.000000    0.000000    0.000000
         Rot=    1.000000    0.000000    0.000000    0.000000 Ang=   0.00 deg.
 Initial guess orbital symmetries:
       Occupied  (A) (A) (A) (A) (A) (A) (A) (A) (A) (A) (A) (A)
                 (A) (A) (A) (A) (A) (A) (A) (A) (A) (A) (A) (A)
                 (A) (A) (A) (A) (A) (A) (A) (A) (A) (A) (A) (A)
                 (A) (A) (A) (A) (A) (A) (A) (A) (A) (A) (A) (A)
       Virtual   (A) (A) (A) (A) (A) (A) (A) (A) (A) (A) (A) (A)
                 (A) (A) (A) (A) (A) (A) (A) (A) (A) (A) (A) (A)
                 (A) (A) (A) (A) (A) (A) (A) (A) (A) (A) (A) (A)
                 (A) (A) (A) (A) (A) (A) (A) (A) (A) (A) (A) (A)
                 (A) (A) (A) (A) (A) (A) (A) (A) (A) (A) (A) (A)
                 (A) (A) (A) (A) (A) (A) (A) (A) (A) (A) (A) (A)
                 (A) (A) (A) (A) (A) (A) (A) (A) (A) (A) (A) (A)
                 (A) (A) (A) (A) (A) (A) (A) (A) (A) (A) (A) (A)
                 (A) (A) (A) (A) (A) (A) (A) (A) (A) (A) (A) (A)
                 (A) (A) (A) (A) (A) (A) (A) (A) (A) (A) (A) (A)
                 (A) (A) (A) (A) (A) (A) (A) (A) (A) (A) (A) (A)
                 (A) (A) (A) (A) (A) (A) (A) (A) (A) (A) (A) (A)
                 (A) (A) (A) (A) (A) (A) (A) (A) (A) (A) (A) (A)
                 (A) (A) (A) (A) (A) (A) (A) (A) (A) (A) (A) (A)
                 (A) (A) (A) (A) (A) (A) (A) (A) (A) (A) (A) (A)
                 (A) (A) (A) (A) (A) (A) (A) (A) (A) (A) (A) (A)
                 (A) (A) (A) (A) (A) (A) (A) (A) (A) (A) (A) (A)
                 (A) (A) (A) (A) (A) (A) (A) (A) (A) (A) (A) (A)
                 (A) (A) (A) (A) (A) (A) (A) (A) (A) (A) (A) (A)
                 (A) (A) (A) (A) (A) (A) (A) (A) (A) (A) (A) (A)
 Harris functional with IExCor=  402 diagonalized for initial guess.
 ExpMin= 1.03D-01 ExpMax= 8.59D+03 ExpMxC= 1.30D+03 IAcc=1 IRadAn=         1 AccDes= 0.00D+00
 HarFok:  IExCor=  402 AccDes= 0.00D+00 IRadAn=         1 IDoV= 1
 ScaDFX=  1.000000  1.000000  1.000000  1.000000
 FoFCou: FMM=F IPFlag=           0 FMFlag=      100000 FMFlg1=           0
         NFxFlg=           0 DoJE=T BraDBF=F KetDBF=T FulRan=T
         Omega=  0.000000  0.000000  1.000000  0.000000  0.000000 ICntrl=     500 IOpCl=  0
         NMat0=    1 NMatS0=    1 NMatT0=    0 NMatD0=    1 NMtDS0=    0 NMtDT0=    0
         I1Cent=           4 NGrid=           0.
 Petite list used in FoFCou.
 Requested convergence on RMS density matrix=1.00D-08 within 128 cycles.
 Requested convergence on MAX density matrix=1.00D-06.
 Requested convergence on             energy=1.00D-06.
 No special actions if energy rises.
 Keep R1 ints in memory in canonical form, NReq=1033417600.
 Integral accuracy reduced to 1.0D-05 until final iterations.
 Initial convergence to 1.0D-05 achieved.  Increase integral accuracy.
 SCF Done:  E(RB3LYP) =  -687.330238001     A.U. after   13 cycles
             Convg  =    0.7108D-08             -V/T =  2.0031
 Calling FoFJK, ICntrl=      2127 FMM=F ISym2X=0 I1Cent= 0 IOpClX= 0 NMat=1 NMatS=1 NMatT=0.
 ***** Axes restored to original set *****
 -------------------------------------------------------------------
 Center     Atomic                   Forces (Hartrees/Bohr)
 Number     Number              X              Y              Z
 -------------------------------------------------------------------
      1        6          -0.001003061   -0.002425538    0.006254392
      2        8           0.000843437   -0.000136795   -0.003472204
      3        1          -0.000936262    0.000292344   -0.001222372
      4        1           0.002022615    0.001413901   -0.003934388
      5        1           0.004820498    0.002988989   -0.005665764
      6        6          -0.009660345   -0.003208830    0.009772466
      7        8           0.005193725    0.003111391   -0.008295508
      8        6          -0.004309557    0.003814215   -0.005762544
      9        6           0.005993236   -0.004532522    0.005178525
     10        6           0.004946983   -0.003754630   -0.007886726
     11        6          -0.001153019    0.002175346   -0.006138222
     12        1           0.000595400    0.000348927    0.002899471
     13        1          -0.001384217    0.000198682    0.000892064
     14        8           0.002566746   -0.002069174    0.001225261
     15        1          -0.001763429    0.000544468    0.000154563
     16        1           0.003674164    0.001783671    0.001590973
     17        8          -0.000998161   -0.003234182   -0.002569325
     18        1           0.000455993   -0.000650732    0.003844994
     19        1          -0.000231914   -0.000348773    0.000125019
     20        8          -0.003343116    0.000333335    0.009311055
     21        1          -0.000632852    0.000321906   -0.000249462
     22        1          -0.003983431    0.003171163    0.002739344
     23        8          -0.005654520   -0.001495950    0.003165020
     24        1           0.003941089    0.001358786   -0.001956630
 -------------------------------------------------------------------
 Cartesian Forces:  Max     0.009772466 RMS     0.003770359

 GradGradGradGradGradGradGradGradGradGradGradGradGradGradGradGradGradGrad
 Berny optimization.
 Using GEDIIS/GDIIS optimizer.
 Internal  Forces:  Max     0.018606420 RMS     0.004003805
 Search for a local minimum.
 Step number   2 out of a maximum of  125
 All quantities printed in internal units (Hartrees-Bohrs-Radians)
 Mixed Optimization -- RFO/linear search
 Update second derivatives using D2CorX and points    1    2
 DE= -9.30D-03 DEPred=-2.15D-02 R= 4.33D-01
 Trust test= 4.33D-01 RLast= 4.36D-01 DXMaxT set to 3.00D-01
 ITU=  0  0
 Use linear search instead of GDIIS.
     Eigenvalues ---    0.00235   0.00299   0.00383   0.00401   0.00489
     Eigenvalues ---    0.00560   0.01323   0.01374   0.01377   0.01392
     Eigenvalues ---    0.01513   0.03725   0.04381   0.04482   0.04857
     Eigenvalues ---    0.04976   0.05310   0.05512   0.05920   0.06529
     Eigenvalues ---    0.06871   0.07142   0.07534   0.09109   0.10815
     Eigenvalues ---    0.11139   0.13504   0.13862   0.15960   0.16000
     Eigenvalues ---    0.16000   0.16000   0.16003   0.16546   0.16623
     Eigenvalues ---    0.19367   0.19853   0.19987   0.21641   0.22100
     Eigenvalues ---    0.22278   0.24631   0.28288   0.28744   0.29269
     Eigenvalues ---    0.29517   0.30686   0.33938   0.34027   0.34196
     Eigenvalues ---    0.34210   0.34263   0.34414   0.34436   0.39303
     Eigenvalues ---    0.41393   0.41751   0.41927   0.42223   0.44501
     Eigenvalues ---    0.51964   0.52839   0.52881   0.52903   0.53011
     Eigenvalues ---    0.87284
 RFO step:  Lambda=-6.61044650D-03 EMin= 2.34914558D-03
 Quartic linear search produced a step of -0.27621.
 Iteration  1 RMS(Cart)=  0.14735729 RMS(Int)=  0.00557895
 Iteration  2 RMS(Cart)=  0.01175385 RMS(Int)=  0.00063333
 Iteration  3 RMS(Cart)=  0.00003530 RMS(Int)=  0.00063296
 Iteration  4 RMS(Cart)=  0.00000001 RMS(Int)=  0.00063296
 Variable       Old X    -DE/DX   Delta X   Delta X   Delta X     New X
                                 (Linear)    (Quad)   (Total)
    R1        2.68225  -0.00454  -0.00306  -0.00143  -0.00450   2.67776
    R2        2.07913   0.00104  -0.00378   0.00944   0.00566   2.08479
    R3        2.06006   0.00607   0.00109   0.01037   0.01146   2.07152
    R4        2.87083   0.00041  -0.00131   0.00346   0.00214   2.87297
    R5        1.81936  -0.00144   0.00508  -0.01202  -0.00695   1.81241
    R6        2.28646  -0.00858   0.01149  -0.03012  -0.01863   2.26782
    R7        2.93640  -0.00657  -0.01370   0.01038  -0.00332   2.93308
    R8        2.91420  -0.00545  -0.00308  -0.00753  -0.01061   2.90359
    R9        2.06999  -0.00095  -0.00007  -0.00183  -0.00190   2.06810
   R10        2.70612   0.00313  -0.00511   0.01529   0.01018   2.71630
   R11        2.89229   0.00518   0.00501   0.00335   0.00837   2.90066
   R12        2.07605   0.00019  -0.00047   0.00130   0.00083   2.07688
   R13        2.71142  -0.00019  -0.00534   0.01013   0.00479   2.71621
   R14        2.88442  -0.00036   0.00135  -0.00344  -0.00208   2.88234
   R15        2.07041  -0.00163   0.00005  -0.00348  -0.00343   2.06698
   R16        2.69324   0.00063   0.00112  -0.00110   0.00001   2.69326
   R17        2.07821   0.00071  -0.00245   0.00619   0.00375   2.08196
   R18        2.07000  -0.00040  -0.00105   0.00120   0.00015   2.07015
   R19        2.70326  -0.00146  -0.00338   0.00413   0.00075   2.70401
   R20        1.81871  -0.00152   0.00518  -0.01234  -0.00715   1.81156
   R21        1.81631  -0.00207   0.00605  -0.01480  -0.00875   1.80756
   R22        1.81420  -0.00074   0.00621  -0.01332  -0.00711   1.80709
   R23        1.81746  -0.00291   0.00557  -0.01497  -0.00940   1.80806
    A1        1.93056   0.00245  -0.00983   0.03457   0.02482   1.95538
    A2        1.93312   0.00293  -0.01084   0.03870   0.02792   1.96103
    A3        1.90221   0.00056   0.00684  -0.00709  -0.00025   1.90196
    A4        1.91708  -0.00261   0.00262  -0.02840  -0.02602   1.89106
    A5        1.88702  -0.00155   0.00647  -0.02034  -0.01403   1.87300
    A6        1.89280  -0.00196   0.00503  -0.01982  -0.01497   1.87783
    A7        1.87375  -0.00105   0.00068  -0.00574  -0.00507   1.86868
    A8        2.07766   0.01499   0.01114   0.02418   0.03211   2.10977
    A9        2.15922  -0.01861  -0.03209   0.01020  -0.02496   2.13426
   A10        2.04459   0.00369   0.02135  -0.02692  -0.00853   2.03607
   A11        2.14745  -0.01716  -0.03641  -0.00558  -0.04258   2.10487
   A12        1.84061   0.00356   0.00649  -0.01843  -0.01307   1.82754
   A13        1.83780   0.00412   0.01520  -0.01268   0.00254   1.84033
   A14        1.87426   0.00335   0.01508  -0.02094  -0.00714   1.86712
   A15        1.85036   0.00744   0.01083   0.01070   0.02114   1.87150
   A16        1.90508  -0.00034  -0.01044   0.05863   0.04858   1.95365
   A17        1.93385   0.00286   0.02257  -0.02494  -0.00206   1.93178
   A18        1.88506   0.00215  -0.00716   0.01765   0.01102   1.89608
   A19        1.95774  -0.01067  -0.00815  -0.03403  -0.04121   1.91653
   A20        1.86933  -0.00202   0.00223   0.00802   0.00996   1.87929
   A21        1.89307   0.00697   0.00689   0.01960   0.02630   1.91937
   A22        1.92290   0.00102  -0.01814   0.01556  -0.00256   1.92033
   A23        1.94621   0.00004   0.00163  -0.00163  -0.00004   1.94617
   A24        1.90259  -0.00168   0.00828  -0.02363  -0.01533   1.88725
   A25        1.91346   0.00070   0.00147  -0.00087   0.00062   1.91409
   A26        1.83644   0.00273  -0.01706   0.04662   0.02956   1.86600
   A27        1.90930  -0.00045  -0.00485   0.00748   0.00265   1.91195
   A28        1.95523  -0.00132   0.00965  -0.02697  -0.01714   1.93809
   A29        1.90987  -0.00133   0.00818  -0.02079  -0.01264   1.89723
   A30        1.92691  -0.00189   0.00710  -0.02257  -0.01555   1.91136
   A31        1.86124   0.00075   0.01048  -0.01721  -0.00675   1.85449
   A32        1.90886   0.00044   0.00059  -0.00046   0.00032   1.90918
   A33        1.91961   0.00072  -0.01092   0.02507   0.01434   1.93396
   A34        1.93685   0.00128  -0.01598   0.03513   0.01926   1.95611
   A35        1.87467   0.00156  -0.00183   0.00999   0.00816   1.88283
   A36        1.89567  -0.00013  -0.00408   0.00658   0.00250   1.89817
   A37        1.89501   0.00022  -0.00297   0.00614   0.00317   1.89819
   A38        1.89091   0.00017  -0.00210   0.00440   0.00230   1.89322
    D1        1.06911   0.00027  -0.00605   0.01093   0.00478   1.07389
    D2       -1.06072  -0.00010   0.00373  -0.00301   0.00082  -1.05989
    D3        3.14148   0.00018   0.00003   0.00234   0.00236  -3.13934
    D4       -0.00471   0.00075  -0.00687   0.03397   0.02795   0.02324
    D5       -3.08144  -0.00079  -0.01761  -0.10580  -0.12424   3.07751
    D6        2.09470   0.00312  -0.01083   0.05957   0.04942   2.14411
    D7       -0.98203   0.00158  -0.02157  -0.08020  -0.10277  -1.08481
    D8       -2.11062  -0.00196  -0.00083   0.00312   0.00328  -2.10734
    D9        1.09583  -0.00350  -0.01158  -0.13665  -0.14891   0.94692
   D10       -0.05132  -0.00135   0.00699   0.05651   0.06247   0.01115
   D11       -2.20415   0.00351   0.00705   0.10806   0.11395  -2.09020
   D12        2.06535   0.00055   0.00890   0.05564   0.06389   2.12924
[...]
 00000785,-0.00015088,0.00021764,-0.00003192,-0.00000967,-0.00003840,-0
 .00007140,0.00009136,0.00004757,0.00001935,-0.00018777,-0.00056361,-0.
 00021727,0.00380407,0.00376816,0.00074820,0.00094297,-0.00113054,-0.07
 067067,0.07992119,-0.00748569,-0.01189636,0.02757506,0.00152919,0.0008
 0484,0.00064664,-0.00144112,-0.00004865,0.00025047,-0.00013712,0.00003
 607,-0.00016514,-0.00010737,0.00005740,0.00004367,-0.00003688,0.000097
 53,-0.00020572,0.00000975,0.00000079,-0.00001927,-0.00000559,0.0817474
 3,0.00001031,-0.00165810,0.00025547,-0.00012755,0.00069521,-0.00016220
 ,0.00006107,0.00001099,0.00010649,-0.00007825,0.00002948,-0.00001538,-
 0.00044651,0.00129987,-0.00033071,0.00246380,-0.00762899,0.00100554,0.
 00077178,0.00092413,0.00123630,0.07530023,-0.26798744,0.01306152,0.002
 93526,-0.00629294,-0.00080776,0.00041709,-0.00079306,0.00069964,-0.000
 06869,-0.00017029,0.00000292,-0.00002082,0.00008574,0.00000484,0.00001
 717,0.00002518,0.00003108,-0.00000065,0.00012519,-0.00002999,-0.000006
 01,0.00001650,-0.00000945,-0.07246372,0.30092947,0.00104463,-0.0019506
 6,-0.00060934,0.00036945,-0.00007289,0.00006584,-0.00000735,-0.0000856
 4,0.00003682,0.00030027,0.00030320,0.00003007,-0.00077583,-0.00062697,
 -0.00126284,-0.00925608,0.03003013,0.00420665,0.00276856,0.00090077,-0
 .00677007,-0.00798276,0.01897414,-0.04887132,0.01068151,-0.02019577,0.
 00113340,0.00005037,-0.00146393,0.00110536,0.00003024,-0.00016722,0.00
 018352,-0.00006539,0.00014927,0.00012842,-0.00008670,-0.00003335,0.000
 04607,-0.00012159,0.00020348,-0.00000713,-0.00000278,0.00002283,0.0000
 0521,0.00557840,-0.00993036,0.05275320,0.00208664,0.00260713,-0.000022
 66,-0.00078810,-0.00050117,-0.00212375,0.00007864,0.00007973,-0.000170
 51,0.00016000,0.00017922,0.00066064,-0.00022865,0.00004088,-0.00013296
 ,-0.02045718,-0.01519839,-0.01571319,0.00580564,-0.00052729,0.00474014
 ,-0.14282380,-0.05438679,-0.05878341,-0.02950593,-0.02549230,-0.015938
 93,0.00048067,-0.00035641,-0.00116391,0.00018661,0.00009420,-0.0009127
 3,0.00003828,0.00001331,0.00002389,0.00014857,-0.00006185,-0.00011600,
 0.00005079,-0.00010467,0.00092398,-0.00004285,-0.00003885,-0.00011934,
 0.00175463,-0.01030727,-0.00382003,0.22305320,0.00083309,0.00250743,0.
 00045616,-0.00075886,0.00014291,-0.00120979,0.00007890,0.00010896,-0.0
 0015193,0.00006069,-0.00009657,0.00059608,0.00019404,0.00105654,0.0004
 7446,-0.00891821,-0.00828069,-0.00314670,0.00966780,0.00548367,0.01249
 805,-0.07601214,-0.13267697,-0.03619793,-0.01074101,-0.00506361,-0.002
 06702,-0.00149292,-0.00032853,-0.00054550,0.00024412,-0.00058170,-0.00
 050222,-0.00011739,0.00024334,0.00010803,-0.00000799,-0.00001192,0.000
 02449,-0.00007320,0.00025311,0.00056917,-0.00004783,-0.00007625,-0.000
 03589,-0.03365628,-0.02092849,-0.01691321,0.17099446,0.39584193,0.0021
 9820,0.00459748,-0.00298067,-0.00218185,-0.00140189,-0.00263916,0.0002
 1675,0.00003490,-0.00054181,-0.00013390,0.00009430,-0.00030183,0.00014
 087,-0.00046011,-0.00022658,-0.03283552,-0.01687322,-0.03137141,-0.009
 84565,-0.00780806,-0.00715300,-0.03433170,-0.00125387,-0.10314597,0.00
 481206,0.00763193,0.00902767,-0.00249311,0.00012904,-0.00274148,0.0011
 3592,-0.00008608,0.00117895,-0.00012101,0.00008264,0.00002060,0.000461
 54,-0.00001673,-0.00030514,-0.00016840,0.00020664,0.00006509,-0.000023
 06,-0.00008787,0.00017911,0.00024495,-0.00195777,0.00248748,0.05329211
 ,-0.18767776,0.37373998,0.00071972,0.00004375,-0.00029737,0.00005282,0
 .00008137,0.00051801,0.00001299,0.00005118,-0.00008527,0.00008721,0.00
 010815,0.00033113,0.00003066,0.00015805,0.00010418,-0.00176019,-0.0079
 1772,-0.00198637,-0.00109843,0.00408754,0.00499043,-0.01157010,-0.0272
 7557,0.01944771,-0.00199385,-0.00386518,-0.00163325,0.00013413,-0.0002
 4329,-0.00004494,-0.00000035,-0.00004754,0.00012566,-0.00001492,0.0000
 4557,0.00002671,-0.00000239,-0.00000238,-0.00002457,0.00002268,0.00007
 038,-0.00021966,-0.00000986,-0.00000708,0.00002767,-0.00116434,0.00082
 475,-0.00015659,-0.03136254,-0.04453636,0.01086640,0.05114856,-0.00126
 422,-0.00186664,0.00056290,0.00055771,0.00033330,0.00072859,-0.0000042
 2,0.00002153,0.00018948,-0.00011276,-0.00018770,-0.00022783,-0.0001747
 0,-0.00012083,-0.00013479,-0.00060402,0.00174029,0.00055394,0.00198059
 ,-0.00306862,0.00034889,-0.01281944,-0.02936263,0.01004157,0.00019519,
 -0.00032979,-0.00014552,0.00028344,-0.00029118,-0.00025503,-0.00000337
 ,0.00030035,0.00021478,-0.00000244,-0.00005784,-0.00001832,0.00010566,
 -0.00000683,-0.00007491,0.00006696,-0.00003029,-0.00022437,-0.00000170
 ,0.00001583,0.00001560,-0.00384935,-0.00228699,-0.00082780,-0.06339401
 ,-0.24210367,0.20079678,0.07746257,0.27646511,0.00092906,0.00322962,-0
 .00019165,-0.00015944,-0.00024935,-0.00003145,-0.00005502,0.00011674,-
 0.00027700,0.00017336,0.00010528,0.00075608,0.00029282,0.00074575,0.00
 058170,-0.01062487,-0.01309044,0.00019951,0.00770617,0.00417052,0.0010
 3429,0.00413645,-0.01034457,0.01384463,-0.00094400,0.00076601,-0.00192
 050,0.00071642,-0.00014365,-0.00071297,-0.00003198,0.00030894,-0.00005
 830,0.00006334,-0.00008712,-0.00003291,-0.00000883,-0.00004347,-0.0000
 1532,-0.00002470,-0.00012270,0.00004675,0.00002632,0.00003542,-0.00003
 582,-0.00325528,-0.00379163,-0.00287237,0.03455046,0.23142659,-0.23605
 335,-0.03252771,-0.21241171,0.22563555,-0.00023265,0.00028615,0.000137
 38,0.00011588,-0.00000783,0.00004160,-0.00002396,-0.00000456,0.0000307
 5,0.00005299,-0.00013750,0.00007082,0.00005599,-0.00011186,0.00003157,
 0.00055818,0.00212202,-0.00215383,-0.00022676,-0.00146730,0.00017939,-
 0.01021623,0.02549868,0.00320276,-0.07376584,0.08428318,-0.00864214,-0
 .00064638,0.00555126,0.00242195,0.00054629,-0.00012572,0.00043271,0.00
 020618,-0.00016540,0.00001396,0.00001080,-0.00018066,-0.00023105,-0.00
 017379,-0.00006812,-0.00005885,0.00001434,-0.00004535,0.00003532,-0.00
 382388,-0.00005104,0.00304526,0.00361894,-0.00180028,-0.00084783,-0.00
 085903,0.00018494,0.00043202,0.08383931,0.00007266,-0.00016614,-0.0000
 2898,-0.00003577,0.00015267,-0.00016607,0.00002874,-0.00002897,0.00001
 410,-0.00002236,-0.00019301,0.00012419,-0.00011908,0.00009120,0.000014
 26,0.00002763,-0.00071987,0.00122637,0.00046009,0.00115791,-0.00076622
 ,0.00206608,-0.00569974,-0.00120571,0.07581626,-0.27392871,0.01793432,
 0.00255885,-0.00661465,0.00088358,0.00026306,-0.00057159,-0.00081857,-
 0.00020820,0.00076636,0.00034082,-0.00008692,-0.00013665,0.00013948,-0
 .00006711,0.00054650,-0.00006391,-0.00006144,0.00003152,0.00002910,0.0
 0005601,0.00055722,-0.00068770,0.00038600,0.00252479,0.00085581,0.0004
 2074,-0.00006211,-0.00019638,-0.07538127,0.30455347,0.00016514,0.00001
 078,-0.00015701,-0.00010609,0.00006305,-0.00003563,0.00003508,-0.00001
 706,-0.00003910,-0.00006319,-0.00010582,-0.00000422,-0.00007785,0.0001
 4373,0.00011443,0.00052414,-0.00303237,0.00144600,-0.00019976,0.001162
 96,0.00003120,0.00991259,-0.01928307,-0.00119812,-0.00622381,0.0201850
 4,-0.05412565,-0.00780521,0.02791565,0.00245419,0.00032425,0.00141604,
 0.00037689,0.00007704,-0.00042588,-0.00069378,0.00030949,-0.00007511,-
 0.00008902,-0.00001525,-0.00076394,0.00074361,0.00007953,-0.00003471,0
 .00004438,0.00330515,-0.00056463,-0.00204795,-0.00215476,0.00137112,0.
 00033262,0.00033827,-0.00007379,0.00016738,0.00477569,-0.01624158,0.05
 846773,0.00010869,0.00022632,0.00158706,0.00059137,-0.00011139,0.00098
 507,-0.00027690,0.00005219,0.00013951,-0.00109286,-0.00047055,0.001608
 53,0.00033448,-0.00021358,0.00020553,0.00033303,0.00136863,-0.00570771
 ,-0.00001743,-0.00133443,0.00230761,-0.02558420,-0.02570259,-0.0135617
 6,-0.14864148,-0.03413295,-0.04827152,-0.02093863,-0.01300313,-0.01557
 335,-0.00410747,0.00047263,0.00066980,0.00036967,0.00046031,0.00015043
 ,0.00252225,0.00018637,-0.00062082,0.00216606,0.00030703,0.00015141,-0
 .00000320,-0.00017717,-0.00056686,0.00323182,0.00087717,-0.00150611,-0
 .01006116,-0.00455768,0.00534810,-0.00221369,0.00119649,-0.00145666,0.
 00281855,-0.00563509,-0.00056920,0.24250908,-0.00097258,0.00070646,0.0
 0086307,0.00066868,0.00070101,-0.00004262,-0.00003888,-0.00006793,0.00
 026883,0.00031243,-0.00171177,0.00014233,-0.00075661,0.00016392,0.0004
 9818,-0.00134690,0.00009841,-0.00401112,0.00037452,-0.00015331,0.00137
 117,-0.00741738,-0.00429905,0.00131742,-0.06886116,-0.13050006,-0.0278
 1917,-0.00674103,-0.00710286,-0.00597377,-0.00155104,-0.00000635,0.001
 10814,-0.00014917,0.00054373,0.00031528,0.00031762,-0.00034605,-0.0001
 8097,0.00032435,0.00124643,-0.00086584,-0.00003613,0.00002172,-0.00017
 426,-0.00134934,0.00236912,0.00131202,-0.00366466,0.00141938,0.0003547
 6,0.00029249,0.00069160,-0.00062035,-0.03477122,-0.02177134,-0.0142438
 0,0.04539786,0.53060478,-0.00227850,0.00044118,-0.00167166,0.00221438,
 0.00119026,-0.00348728,0.00004582,0.00016192,0.00080852,0.00461127,-0.
 00001772,-0.00330971,0.00011617,-0.00032859,0.00020443,-0.00447968,-0.
 00110354,-0.00267050,0.00141675,0.00048073,0.00109018,0.00225965,0.007
 63023,0.01237284,-0.03119974,0.00220396,-0.08909075,-0.03648116,-0.021
 82861,-0.01886034,0.00041288,-0.00094696,0.00273739,-0.00066472,-0.000
 47302,-0.00066349,-0.00141958,-0.00007984,-0.00079296,-0.00038067,0.00
 042776,-0.00194478,0.00012780,0.00005417,0.00048120,-0.00081697,0.0005
 3091,0.00003476,0.00576091,0.00075496,0.00019003,0.00011510,0.00013930
 ,-0.00004663,0.00192978,0.00054820,0.00284899,0.11916588,-0.15829338,0
 .22389616,0.00003817,-0.00038217,0.00028386,-0.00011790,0.00013266,-0.
 00023582,0.00005744,0.00001337,0.00002338,0.00002196,0.00006145,0.0001
 5514,-0.00003463,0.00010879,0.00003439,0.00007730,-0.00022327,0.000480
 49,0.00004909,0.00032039,-0.00029184,-0.00003124,-0.00292743,-0.000777
 15,0.00054429,-0.03493956,0.01325912,0.00031991,-0.00538623,-0.0022424
 9,0.00117383,0.00023335,0.00053612,-0.00044815,0.00008142,0.00010423,-
 0.00057692,0.00029222,0.00028440,-0.00065185,0.00033353,-0.00008458,0.
 00006442,0.00023809,0.00006729,-0.00110774,0.00057692,0.00050068,-0.00
 123622,0.00083924,-0.00014029,0.00006831,0.00006030,0.00003340,-0.0026
 9498,-0.00131161,-0.00143346,-0.04444191,0.07106783,-0.05339739,0.0499
 7516,-0.00003525,0.00007266,-0.00001289,0.00013933,-0.00001985,-0.0004
 7774,-0.00001333,0.00006815,0.00006395,-0.00009681,0.00022124,0.000941
 06,0.00016863,-0.00002709,-0.00008776,0.00001056,-0.00059928,0.0006421
 5,0.00007419,0.00039846,-0.00026661,-0.00014022,0.00088173,0.00041942,
 -0.00346820,-0.03228546,0.00569610,0.00021749,0.00129410,0.00069213,0.
 00000232,-0.00040373,-0.00114416,0.00023285,0.00009763,0.00005610,0.00
 058588,-0.00024332,-0.00068826,0.00010506,-0.00046630,0.00085359,-0.00
 001884,-0.00000015,-0.00002365,-0.00021543,0.00000476,0.00014662,0.001
 02686,0.00069516,-0.00010394,0.00012446,-0.00007925,0.00002052,-0.0043
 0094,-0.00114104,-0.00092546,0.03551545,-0.37669548,0.16696963,-0.0311
 4796,0.41165907,-0.00005292,0.00003499,-0.00090159,-0.00005290,-0.0004
 0431,0.00043814,-0.00002461,0.00005418,-0.00017068,-0.00007441,0.00094
 565,-0.00030101,0.00050735,-0.00020199,-0.00021159,0.00043592,0.000919
 52,-0.00010500,-0.00038737,-0.00061178,-0.00009913,-0.00008323,0.00110
 648,-0.00039787,0.00294169,-0.01346243,0.00878960,-0.00332032,-0.00859
 081,-0.00068214,-0.00046310,-0.00001389,-0.00102828,0.00001780,0.00055
 545,0.00050302,0.00045704,-0.00056245,-0.00018164,0.00008862,0.0006144
 3,0.00045589,-0.00001073,0.00001857,-0.00029132,0.00046788,-0.00022143
 ,0.00037852,-0.00077338,-0.00066651,-0.00030302,0.00001443,-0.00006177
 ,-0.00003063,-0.00350182,-0.00364035,-0.00191711,-0.04001188,0.1951807
 9,-0.11147073,0.03955746,-0.17429427,0.10742926,-0.00000994,0.00004564
 ,0.00005119,0.00001013,0.00000925,-0.00006657,-0.00000645,0.00000604,0
 .00001118,0.00002349,0.00000279,0.00004536,0.00000578,0.00000483,0.000
 00445,-0.00022064,-0.00029356,-0.00017444,0.00017315,0.00006040,0.0002
 2503,-0.00050895,-0.00059617,-0.00008616,-0.00481303,-0.00220444,-0.00
 226580,-0.25678592,-0.08232909,-0.06355847,-0.02388991,-0.00643336,-0.
 00651220,0.00061022,0.00043482,0.00005595,-0.00185711,0.00150829,0.002
 94097,0.00211566,-0.00010663,-0.00019493,0.00044348,0.00012755,-0.0001
 1873,0.00014610,0.00001657,-0.00013390,-0.00115900,-0.00014187,0.00341
 261,-0.00021590,-0.00006064,0.00016365,0.00007004,0.00024691,-0.000294
 53,0.00069271,0.00042491,-0.00056804,-0.00005191,0.00032276,0.00026004
 ,0.27493983,0.00000257,0.00003102,-0.00002077,-0.00004736,-0.00000347,
 -0.00001350,0.00000692,-0.00000536,-0.00000701,-0.00001108,-0.00001050
 ,-0.00003501,-0.00000466,0.00001420,0.00001194,0.00014136,-0.00025924,
 0.00006839,0.00005333,0.00005782,0.00000748,-0.00092818,0.00059569,-0.
 00040962,0.00547368,0.00501280,-0.00243468,-0.07942012,-0.07924342,-0.
 02312857,0.01198144,0.00551915,0.00332819,-0.00019803,0.00070944,0.000
 76013,0.00242008,0.00030140,-0.00236004,-0.00108705,0.00025315,0.00000
 186,0.00004758,-0.00004455,0.00025099,-0.00013609,-0.00015007,0.000003
 72,-0.00056632,-0.00054562,0.00129034,-0.00002038,-0.00003741,0.000288
 40,-0.00019296,-0.00005749,-0.00092133,0.00091503,0.00178605,0.0029020
 0,0.00076367,-0.00135203,0.00127635,0.08953639,0.10191346,-0.00010348,
 -0.00001691,0.00018820,0.00018422,0.00007392,0.00001164,-0.00002264,0.
 00001114,0.00005457,0.00003502,-0.00005326,0.00029737,-0.00000376,0.00
 000500,0.00003542,-0.00042372,-0.00018771,-0.00019030,0.00042278,0.000
 13494,0.00056706,-0.00200470,-0.00229821,-0.00059406,-0.02683762,-0.01
 162195,-0.00580705,-0.05967059,-0.02368683,-0.07186882,0.02153463,0.00
 580225,0.00511082,-0.00086563,0.00025500,0.00083747,0.00303687,-0.0009
 2360,-0.00263593,-0.00157632,-0.00002557,0.00187756,-0.00032232,-0.000
 23042,0.00029948,0.00031160,0.00010353,-0.00002578,0.00108357,0.000244
 70,0.00013017,0.00020512,0.00080462,-0.00010942,0.00016576,0.00079479,
 0.00001022,-0.00282593,0.00011052,-0.00781222,0.00030850,0.00066210,0.
 00062636,0.06441619,0.02907831,0.07475788,-0.00021609,0.00010115,0.000
 11137,0.00022218,0.00001446,-0.00004719,-0.00005323,0.00003306,0.00006
 186,0.00008902,0.00003266,0.00018269,0.00001935,-0.00004087,0.00000036
 ,-0.00006624,-0.00049184,-0.00056037,0.00016946,0.00008452,0.00049129,
 -0.00054010,-0.00023887,-0.00006297,-0.00313526,0.00284035,-0.00471681
 ,-0.06862212,-0.00695947,0.00669069,0.00076115,0.03045714,0.00120591,-
 0.00299021,0.00266213,0.00488981,0.00342506,-0.00046248,-0.00196997,0.
 00201768,0.00230950,0.00124263,0.00039999,0.00008967,-0.00067316,0.000
 12302,-0.00058280,-0.00028585,0.00028973,-0.00007057,0.00106705,0.0000
 0624,0.00025447,-0.00016082,0.00076718,0.00022389,-0.00032303,0.002623
 76,0.00586932,-0.00533307,-0.00331031,0.00126015,0.00271037,0.01043314
 ,-0.02784368,0.00221964,0.07230372,0.00033394,-0.00010030,-0.00022237,
 0.00006502,0.00013289,0.00043452,0.00001742,-0.00006878,-0.00003622,-0
 .00001691,-0.00007021,0.00000731,-0.00009963,0.00005604,0.00011740,-0.
 00068956,0.00049386,-0.00147213,0.00022228,-0.00007062,0.00065394,0.00
 060996,-0.00096118,-0.00056642,0.00492280,-0.02946718,0.01129895,0.002
 48789,-0.19504185,-0.02666052,0.00751538,-0.04257081,-0.00175787,0.004
 15939,0.00003484,-0.00428475,0.00044036,0.00198953,0.00042983,-0.00105
 128,0.00402174,0.00089746,-0.00069140,0.00009597,0.00108140,-0.0005470
 3,0.00063006,0.00063282,-0.00090182,0.00023486,0.00172807,0.00018188,0
 .00033527,-0.00016636,0.00040620,0.00090218,0.00254278,-0.00054346,0.0
 0114907,0.00023177,-0.00048851,-0.00194121,0.00108609,-0.00006031,-0.0
 3404764,0.00084158,0.00028872,0.35995928,-0.00009891,-0.00017814,0.000
 52645,0.00001838,0.00015904,-0.00076120,0.00001773,0.00001734,0.000143
 21,0.00015332,0.00009274,0.00021572,0.00000689,0.00003294,-0.00003005,
 -0.00052769,-0.00015643,0.00163240,0.00046018,0.00050232,-0.00064008,-
 0.00083462,-0.00094537,0.00090861,-0.00796538,0.04226157,-0.00870341,0
 .00053534,0.01915423,-0.09336709,0.00087366,-0.02049210,-0.00308279,0.
 00361519,-0.00157525,-0.00197508,-0.00022911,0.00048388,0.00062645,0.0
 0373732,-0.00661154,-0.00289364,-0.00023550,-0.00259315,0.00098526,-0.
 00012420,0.00081005,-0.00000187,0.00112040,0.00071628,0.00026137,-0.00
 018680,-0.00002562,0.00012798,-0.00167426,0.00133138,-0.00699372,-0.00
 211691,0.00917819,-0.00367232,0.00271470,0.00044771,0.00064108,0.00261
 782,-0.00833519,0.00428757,-0.06259032,-0.10910178,0.57945192,-0.00001
 517,-0.00004104,0.00004514,-0.00001724,0.00003106,-0.00006559,0.000015
 54,-0.00000391,0.00000752,0.00002710,0.00001151,0.00002204,0.00000881,
 0.00000790,-0.00000006,-0.00001772,-0.00006961,-0.00008979,-0.00007296
 ,-0.00004381,0.00003297,0.00009913,0.00017494,0.00045497,-0.00176062,0
 .00153830,-0.00176048,0.00109919,-0.00075242,-0.00149089,0.00101987,0.
 00408399,-0.00270776,0.00008977,-0.00083104,0.00008177,-0.00057816,0.0
 0026304,0.00009190,-0.00169317,-0.00313690,-0.00049897,-0.00059748,0.0
 0016569,0.00042658,0.00014344,-0.00011882,-0.00016841,-0.00008691,0.00
 002026,-0.00007424,-0.00001774,-0.00005742,0.00002582,-0.00001118,0.00
 030191,-0.00058021,-0.00092255,0.00260612,-0.00115687,0.00231385,-0.00
 034902,0.00129806,-0.00014498,-0.00088615,0.00073281,-0.01471714,-0.01
 656132,0.06071275,0.01583631,-0.00003044,-0.00001530,0.00005793,0.0000
 0217,0.00001426,-0.00015358,-0.00000020,0.00001242,0.00002410,0.000017
 01,-0.00000745,0.00005544,0.00000144,0.00001009,0.00000813,0.00003202,
 -0.00012531,0.00040375,0.00004727,0.00019939,-0.00023733,0.00025521,-0
 .00018427,-0.00082672,0.00010646,-0.00868472,-0.00082993,-0.00402797,-
 0.01955193,0.04406322,0.00200590,-0.00278200,0.00364783,-0.00053819,0.
 00068635,0.00021824,0.00001117,0.00006363,-0.00050711,-0.00163502,-0.0
 0042450,0.00121691,-0.00031196,0.00230897,-0.00057133,-0.00034222,0.00
 019344,0.00027649,0.00008002,0.00018194,-0.00007539,-0.00003739,-0.000
 01148,0.00005391,0.00047961,-0.00019248,0.00189739,-0.00109346,0.00115
 251,-0.00159531,0.00168350,-0.00013877,0.00093950,-0.00052110,-0.00043
 737,0.00012205,-0.00983059,-0.06569578,0.07482688,0.01364674,0.0934283
 7,-0.00001919,0.00003532,-0.00011394,0.00002217,-0.00004512,0.00017921
 ,-0.00000931,0.00000632,-0.00003128,-0.00000885,0.00000754,-0.00004823
 ,0.00001252,-0.00001586,-0.00000026,-0.00000514,0.00014191,-0.00035367
 ,-0.00005119,-0.00019899,0.00021723,-0.00002698,-0.00007642,0.00007658
 ,0.00039842,-0.00004995,-0.00021530,-0.00130115,0.00400379,-0.00066935
 ,0.00126049,-0.00454391,0.00417401,0.00003475,0.00051503,-0.00172968,-
 0.00040968,0.00051124,-0.00063211,-0.00089357,0.00049667,-0.00155332,-
 0.00001844,0.00141571,-0.00057703,0.00000112,-0.00002696,-0.00012663,-
 0.00021055,-0.00012564,0.00015035,0.00005171,0.00008502,-0.00000555,0.
 00016305,-0.00042095,0.00026368,0.00046977,0.00020458,0.00082888,0.000
 25985,0.00041365,-0.00117012,-0.00023065,-0.00160239,-0.00004820,0.055
 84989,0.12228448,-0.46768677,-0.05533904,-0.12301507,0.46907151\\-0.00
 000669,0.00001097,-0.00000300,0.00000475,0.00000180,-0.00000264,-0.000
 00412,0.00000954,-0.00000337,0.00000366,-0.00000311,-0.00000377,-0.000
 00180,-0.00000447,0.00000303,-0.00000883,-0.00002634,0.00002333,0.0000
 1462,0.00002034,-0.00000732,-0.00004432,0.00002004,0.00002316,0.000040
 27,-0.00001043,-0.00001920,-0.00000716,0.00001005,-0.00000801,0.000003
 48,-0.00000147,0.00001106,0.00000026,-0.00000404,-0.00000080,-0.000001
 42,-0.00000121,-0.00000650,-0.00000554,-0.00000854,-0.00000606,0.00000
 018,0.00000330,0.00000468,0.00000718,-0.00001098,-0.00001136,0.0000055
 4,-0.00000341,0.00000821,0.00000216,-0.00000137,-0.00000014,-0.0000035
 3,0.00000496,-0.00000021,0.00001080,0.00000795,-0.00000226,-0.00000105
 ,0.00000076,-0.00000282,0.00000095,-0.00000177,0.00000353,-0.00000280,
 -0.00000600,-0.00000149,-0.00000657,-0.00000656,0.00000193\\\@


 IBM COMPATIBILITY IS LIKE PREGNANCY. YOU ARE OR
 OR YOU ARE NOT. -- ADAM OSBORNE
 Job cpu time:  0 days  0 hours 25 minutes 38.0 seconds.
 File lengths (MBytes):  RWF=    219 Int=      0 D2E=      0 Chk=      7 Scr=      1
 Normal termination of Gaussian 09 at Mon Jan 22 21:46:21 2018.
