 Entering Gaussian System, Link 0=g09
 Input=R-R-R-Fructuose.inp
 Output=R-R-R-Fructuose.log
 Initial command:
 /usr/local/g09/l1.exe /home/g09scr/Gau-8662.inp -scrdir=/home/g09scr/
 Entering Link 1 = /usr/local/g09/l1.exe PID=      8664.
  
 Copyright (c) 1988,1990,1992,1993,1995,1998,2003,2009,2010,
            Gaussian, Inc.  All Rights Reserved.
  
 This is part of the Gaussian(R) 09 program.  It is based on
 the Gaussian(R) 03 system (copyright 2003, Gaussian, Inc.),
 the Gaussian(R) 98 system (copyright 1998, Gaussian, Inc.),
 the Gaussian(R) 94 system (copyright 1995, Gaussian, Inc.),
 the Gaussian 92(TM) system (copyright 1992, Gaussian, Inc.),
 the Gaussian 90(TM) system (copyright 1990, Gaussian, Inc.),
 the Gaussian 88(TM) system (copyright 1988, Gaussian, Inc.),
 the Gaussian 86(TM) system (copyright 1986, Carnegie Mellon
 University), and the Gaussian 82(TM) system (copyright 1983,
 Carnegie Mellon University). Gaussian is a federally registered
 trademark of Gaussian, Inc.
  
 This software contains proprietary and confidential information,
 including trade secrets, belonging to Gaussian, Inc.
  
 This software is provided under written license and may be
 used, copied, transmitted, or stored only in accord with that
 written license.
  
 The following legend is applicable only to US Government
 contracts under FAR:
  
                    RESTRICTED RIGHTS LEGEND
  
 Use, reproduction and disclosure by the US Government is
 subject to restrictions as set forth in subparagraphs (a)
 and (c) of the Commercial Computer Software - Restricted
 Rights clause in FAR 52.227-19.
  
 Gaussian, Inc.
 340 Quinnipiac St., Bldg. 40, Wallingford CT 06492
  
  
 ---------------------------------------------------------------
 Warning -- This program may not be used in any manner that
 competes with the business of Gaussian, Inc. or will provide
 assistance to any competitor of Gaussian, Inc.  The licensee
 of this program is prohibited from giving any competitor of
 Gaussian, Inc. access to this program.  By using this program,
 the user acknowledges that Gaussian, Inc. is engaged in the
 business of creating and licensing software in the field of
 computational chemistry and represents and warrants to the
 licensee that it is not a competitor of Gaussian, Inc. and that
 it will not use this program in any manner prohibited above.
 ---------------------------------------------------------------
  

 Cite this work as:
 Gaussian 09, Revision B.01,
 M. J. Frisch, G. W. Trucks, H. B. Schlegel, G. E. Scuseria, 
 M. A. Robb, J. R. Cheeseman, G. Scalmani, V. Barone, B. Mennucci, 
 G. A. Petersson, H. Nakatsuji, M. Caricato, X. Li, H. P. Hratchian, 
 A. F. Izmaylov, J. Bloino, G. Zheng, J. L. Sonnenberg, M. Hada, 
 M. Ehara, K. Toyota, R. Fukuda, J. Hasegawa, M. Ishida, T. Nakajima, 
 Y. Honda, O. Kitao, H. Nakai, T. Vreven, J. A. Montgomery, Jr., 
 J. E. Peralta, F. Ogliaro, M. Bearpark, J. J. Heyd, E. Brothers, 
 K. N. Kudin, V. N. Staroverov, T. Keith, R. Kobayashi, J. Normand, 
 K. Raghavachari, A. Rendell, J. C. Burant, S. S. Iyengar, J. Tomasi, 
 M. Cossi, N. Rega, J. M. Millam, M. Klene, J. E. Knox, J. B. Cross, 
 V. Bakken, C. Adamo, J. Jaramillo, R. Gomperts, R. E. Stratmann, 
 O. Yazyev, A. J. Austin, R. Cammi, C. Pomelli, J. W. Ochterski, 
 R. L. Martin, K. Morokuma, V. G. Zakrzewski, G. A. Voth, 
 P. Salvador, J. J. Dannenberg, S. Dapprich, A. D. Daniels, 
 O. Farkas, J. B. Foresman, J. V. Ortiz, J. Cioslowski, 
 and D. J. Fox, Gaussian, Inc., Wallingford CT, 2010.
 
 ******************************************
 Gaussian 09:  EM64L-G09RevB.01 12-Aug-2010
                22-Jan-2018 
 ******************************************
 %nproc=4
 Will use up to    4 processors via shared memory.
 %mem=60gb
 ------------------------------
 #B3LYP/6-311G** fopt test freq
 ------------------------------
 1/14=-1,18=20,19=15,26=3,38=1/1,3;
 2/9=110,12=2,14=103,17=6,18=5,40=1/2;
 3/5=4,6=6,7=101,11=2,16=1,25=1,30=1,71=1,74=-5/1,2,3;
 4//1;
 5/5=2,38=5/2;
 6/7=2,8=2,9=2,10=2,28=1/1;
 7//1,2,3,16;
 1/14=-1,18=20,19=15/3(2);
 2/9=110/2;
 99//99;
 2/9=110/2;
 3/5=4,6=6,7=101,11=2,16=1,25=1,30=1,71=1,74=-5/1,2,3;
 4/5=5,16=3/1;
 5/5=2,38=5/2;
 7//1,2,3,16;
 1/14=-1,18=20,19=15/3(-5);
 2/9=110/2;
 6/7=2,8=2,9=2,10=2,19=2,28=1/1;
 99/9=1/99;
 --------------------------
 Sugars/R-R-R-Fructuose.xyz
 --------------------------
 Symbolic Z-matrix:
 Charge =  0 Multiplicity = 1
 C                     0.        0.        0. 
 O                     0.        0.        1.41352 
 H                     0.92749   0.        1.70592 
 H                     0.51803  -0.89725  -0.34815 
 H                     0.51786   0.89695  -0.34677 
 C                    -1.42147   0.       -0.52884 
 O                    -2.38889  -0.0311    0.23329 
 C                    -1.59838   0.00492  -2.04619 
 C                    -0.29803   0.04539  -2.86317 
 C                    -0.4755    0.02154  -4.39287 
 C                     0.86828   0.04202  -5.12195 
 H                     1.4567   -0.85196  -4.89019 
 H                     1.45026   0.93508  -4.87855 
 O                     0.62907   0.0516   -6.5257 
 H                     1.49772   0.05882  -6.96259 
 H                    -2.23088   0.86564  -2.28847 
 O                    -2.32272  -1.16099  -2.41868 
 H                    -3.17739  -0.87514  -2.78481 
 H                     0.27509  -0.84763  -2.58217 
 O                     0.49379   1.16746  -2.48447 
 H                     1.31496   0.83388  -2.08567 
 H                    -1.05584   0.88784  -4.72949 
 O                    -1.01692  -1.23465  -4.80051 
 H                    -1.82339  -1.05983  -5.31495 
 

 GradGradGradGradGradGradGradGradGradGradGradGradGradGradGradGradGradGrad
 Berny optimization.
 Initialization pass.
                           ----------------------------
                           !    Initial Parameters    !
                           ! (Angstroms and Degrees)  !
 --------------------------                            --------------------------
 ! Name  Definition              Value          Derivative Info.                !
 --------------------------------------------------------------------------------
 ! R1    R(1,2)                  1.4135         estimate D2E/DX2                !
 ! R2    R(1,4)                  1.093          estimate D2E/DX2                !
 ! R3    R(1,5)                  1.0922         estimate D2E/DX2                !
 ! R4    R(1,6)                  1.5167         estimate D2E/DX2                !
 ! R5    R(2,3)                  0.9725         estimate D2E/DX2                !
 ! R6    R(6,7)                  1.232          estimate D2E/DX2                !
 ! R7    R(6,8)                  1.5276         estimate D2E/DX2                !
 ! R8    R(8,9)                  1.5362         estimate D2E/DX2                !
 ! R9    R(8,16)                 1.0953         estimate D2E/DX2                !
 ! R10   R(8,17)                 1.4222         estimate D2E/DX2                !
 ! R11   R(9,10)                 1.5401         estimate D2E/DX2                !
 ! R12   R(9,19)                 1.0977         estimate D2E/DX2                !
 ! R13   R(9,20)                 1.4246         estimate D2E/DX2                !
 ! R14   R(10,11)                1.529          estimate D2E/DX2                !
 ! R15   R(10,22)                1.0957         estimate D2E/DX2                !
 ! R16   R(10,23)                1.4273         estimate D2E/DX2                !
 ! R17   R(11,12)                1.0951         estimate D2E/DX2                !
 ! R18   R(11,13)                1.0934         estimate D2E/DX2                !
 ! R19   R(11,14)                1.424          estimate D2E/DX2                !
 ! R20   R(14,15)                0.9724         estimate D2E/DX2                !
 ! R21   R(17,18)                0.9727         estimate D2E/DX2                !
 ! R22   R(20,21)                0.9719         estimate D2E/DX2                !
 ! R23   R(23,24)                0.9724         estimate D2E/DX2                !
 ! A1    A(2,1,4)              108.574          estimate D2E/DX2                !
 ! A2    A(2,1,5)              108.511          estimate D2E/DX2                !
 ! A3    A(2,1,6)              110.407          estimate D2E/DX2                !
 ! A4    A(4,1,5)              110.3838         estimate D2E/DX2                !
 ! A5    A(4,1,6)              109.4597         estimate D2E/DX2                !
 ! A6    A(5,1,6)              109.4917         estimate D2E/DX2                !
 ! A7    A(1,2,3)              107.498          estimate D2E/DX2                !
 ! A8    A(1,6,7)              121.351          estimate D2E/DX2                !
 ! A9    A(1,6,8)              117.057          estimate D2E/DX2                !
 ! A10   A(7,6,8)              121.5748         estimate D2E/DX2                !
 ! A11   A(6,8,9)              115.486          estimate D2E/DX2                !
 ! A12   A(6,8,16)             106.8055         estimate D2E/DX2                !
 ! A13   A(6,8,17)             108.4505         estimate D2E/DX2                !
 ! A14   A(9,8,16)             110.516          estimate D2E/DX2                !
 ! A15   A(9,8,17)             108.265          estimate D2E/DX2                !
 ! A16   A(16,8,17)            106.9882         estimate D2E/DX2                !
 ! A17   A(8,9,10)             115.484          estimate D2E/DX2                !
 ! A18   A(8,9,19)             106.5213         estimate D2E/DX2                !
 ! A19   A(8,9,20)             110.4787         estimate D2E/DX2                !
 ! A20   A(10,9,19)            107.567          estimate D2E/DX2                !
 ! A21   A(10,9,20)            109.894          estimate D2E/DX2                !
 ! A22   A(19,9,20)            106.4113         estimate D2E/DX2                !
 ! A23   A(9,10,11)            111.847          estimate D2E/DX2                !
 ! A24   A(9,10,22)            110.727          estimate D2E/DX2                !
 ! A25   A(9,10,23)            109.938          estimate D2E/DX2                !
 ! A26   A(11,10,22)           107.9636         estimate D2E/DX2                !
 ! A27   A(11,10,23)           102.0626         estimate D2E/DX2                !
 ! A28   A(22,10,23)           114.0276         estimate D2E/DX2                !
 ! A29   A(10,11,12)           111.125          estimate D2E/DX2                !
 ! A30   A(10,11,13)           111.8759         estimate D2E/DX2                !
 ! A31   A(10,11,14)           108.815          estimate D2E/DX2                !
 ! A32   A(12,11,13)           109.4922         estimate D2E/DX2                !
 ! A33   A(12,11,14)           107.7211         estimate D2E/DX2                !
 ! A34   A(13,11,14)           107.6593         estimate D2E/DX2                !
 ! A35   A(11,14,15)           107.0319         estimate D2E/DX2                !
 ! A36   A(8,17,18)            107.768          estimate D2E/DX2                !
 ! A37   A(9,20,21)            107.96           estimate D2E/DX2                !
 ! A38   A(10,23,24)           107.906          estimate D2E/DX2                !
 ! D1    D(4,1,2,3)             60.0            estimate D2E/DX2                !
 ! D2    D(5,1,2,3)            -60.0            estimate D2E/DX2                !
 ! D3    D(6,1,2,3)            180.0            estimate D2E/DX2                !
 ! D4    D(2,1,6,7)             -1.694          estimate D2E/DX2                !
 ! D5    D(2,1,6,8)            179.793          estimate D2E/DX2                !
 ! D6    D(4,1,6,7)            117.7715         estimate D2E/DX2                !
 ! D7    D(4,1,6,8)            -60.7415         estimate D2E/DX2                !
 ! D8    D(5,1,6,7)           -121.102          estimate D2E/DX2                !
 ! D9    D(5,1,6,8)             60.385          estimate D2E/DX2                !
 ! D10   D(1,6,8,9)             -1.4906         estimate D2E/DX2                !
 ! D11   D(1,6,8,16)          -124.8258         estimate D2E/DX2                !
 ! D12   D(1,6,8,17)           120.1809         estimate D2E/DX2                !
 ! D13   D(7,6,8,9)            180.0            estimate D2E/DX2                !
 ! D14   D(7,6,8,16)            56.6647         estimate D2E/DX2                !
 ! D15   D(7,6,8,17)           -58.3286         estimate D2E/DX2                !
 ! D16   D(6,8,9,10)           178.812          estimate D2E/DX2                !
 ! D17   D(6,8,9,19)            59.4631         estimate D2E/DX2                !
 ! D18   D(6,8,9,20)           -55.71           estimate D2E/DX2                !
 ! D19   D(16,8,9,10)          -59.8319         estimate D2E/DX2                !
 ! D20   D(16,8,9,19)         -179.1809         estimate D2E/DX2                !
 ! D21   D(16,8,9,20)           65.6461         estimate D2E/DX2                !
 ! D22   D(17,8,9,10)           57.041          estimate D2E/DX2                !
 ! D23   D(17,8,9,19)          -62.3079         estimate D2E/DX2                !
 ! D24   D(17,8,9,20)         -177.481          estimate D2E/DX2                !
 ! D25   D(6,8,17,18)          114.8739         estimate D2E/DX2                !
 ! D26   D(9,8,17,18)         -119.126          estimate D2E/DX2                !
 ! D27   D(16,8,17,18)          -0.0001         estimate D2E/DX2                !
 ! D28   D(8,9,10,11)         -179.087          estimate D2E/DX2                !
 ! D29   D(8,9,10,22)           60.4499         estimate D2E/DX2                !
 ! D30   D(8,9,10,23)          -66.447          estimate D2E/DX2                !
 ! D31   D(19,9,10,11)         -60.315          estimate D2E/DX2                !
 ! D32   D(19,9,10,22)         179.222          estimate D2E/DX2                !
 ! D33   D(19,9,10,23)          52.325          estimate D2E/DX2                !
 ! D34   D(20,9,10,11)          55.135          estimate D2E/DX2                !
 ! D35   D(20,9,10,22)         -65.3281         estimate D2E/DX2                !
 ! D36   D(20,9,10,23)         167.775          estimate D2E/DX2                !
 ! D37   D(8,9,20,21)          115.2421         estimate D2E/DX2                !
 ! D38   D(10,9,20,21)        -116.1799         estimate D2E/DX2                !
 ! D39   D(19,9,20,21)           0.0            estimate D2E/DX2                !
 ! D40   D(9,10,11,12)          62.961          estimate D2E/DX2                !
 ! D41   D(9,10,11,13)         -59.764          estimate D2E/DX2                !
 ! D42   D(9,10,11,14)        -178.59           estimate D2E/DX2                !
 ! D43   D(22,10,11,12)       -174.9777         estimate D2E/DX2                !
 ! D44   D(22,10,11,13)         62.2974         estimate D2E/DX2                !
 ! D45   D(22,10,11,14)        -56.5287         estimate D2E/DX2                !
 ! D46   D(23,10,11,12)        -54.514          estimate D2E/DX2                !
 ! D47   D(23,10,11,13)       -177.2389         estimate D2E/DX2                !
 ! D48   D(23,10,11,14)         63.935          estimate D2E/DX2                !
 ! D49   D(9,10,23,24)         125.0235         estimate D2E/DX2                !
 ! D50   D(11,10,23,24)       -116.1399         estimate D2E/DX2                !
 ! D51   D(22,10,23,24)          0.0            estimate D2E/DX2                !
 ! D52   D(10,11,14,15)       -179.647          estimate D2E/DX2                !
 ! D53   D(12,11,14,15)        -59.077          estimate D2E/DX2                !
 ! D54   D(13,11,14,15)         58.9155         estimate D2E/DX2                !
 --------------------------------------------------------------------------------
 Trust Radius=3.00D-01 FncErr=1.00D-07 GrdErr=1.00D-06
 Number of steps in this run=    125 maximum allowed number of steps=    144.
 GradGradGradGradGradGradGradGradGradGradGradGradGradGradGradGradGradGrad

                          Input orientation:                          
 ---------------------------------------------------------------------
 Center     Atomic      Atomic             Coordinates (Angstroms)
 Number     Number       Type             X           Y           Z
 ---------------------------------------------------------------------
      1          6           0        0.000000    0.000000    0.000000
      2          8           0        0.000000    0.000000    1.413516
      3          1           0        0.927487    0.000000    1.705916
      4          1           0        0.518025   -0.897246   -0.348146
      5          1           0        0.517855    0.896952   -0.346765
      6          6           0       -1.421472    0.000000   -0.528838
      7          8           0       -2.388894   -0.031101    0.233292
      8          6           0       -1.598381    0.004915   -2.046186
      9          6           0       -0.298033    0.045392   -2.863171
     10          6           0       -0.475503    0.021535   -4.392866
     11          6           0        0.868280    0.042020   -5.121945
     12          1           0        1.456696   -0.851959   -4.890189
     13          1           0        1.450260    0.935079   -4.878545
     14          8           0        0.629072    0.051603   -6.525700
     15          1           0        1.497715    0.058819   -6.962591
     16          1           0       -2.230879    0.865635   -2.288466
     17          8           0       -2.322721   -1.160985   -2.418677
     18          1           0       -3.177394   -0.875136   -2.784805
     19          1           0        0.275090   -0.847631   -2.582168
     20          8           0        0.493788    1.167463   -2.484467
     21          1           0        1.314964    0.833878   -2.085668
     22          1           0       -1.055845    0.887837   -4.729486
     23          8           0       -1.016917   -1.234648   -4.800512
     24          1           0       -1.823387   -1.059831   -5.314954
 ---------------------------------------------------------------------
                    Distance matrix (angstroms):
                    1          2          3          4          5
     1  C    0.000000
     2  O    1.413516   0.000000
     3  H    1.941747   0.972486   0.000000
     4  H    1.092980   2.043735   2.278570   0.000000
     5  H    1.092219   2.042373   2.277240   1.794199   0.000000
     6  C    1.516658   2.406932   3.242180   2.144609   2.144449
     7  O    2.400460   2.664716   3.628770   3.088439   3.105952
     8  C    2.596483   3.811087   4.523086   2.859442   2.856959
     9  C    2.878998   4.287299   4.730805   2.807110   2.779051
    10  C    4.418579   5.825859   6.258114   4.265093   4.257235
    11  C    5.195190   6.593021   6.828247   4.877915   4.863749
    12  H    5.173176   6.525680   6.671919   4.638244   4.958106
    13  H    5.174730   6.524390   6.671041   4.975037   4.626863
    14  O    6.556154   7.964267   8.237185   6.250985   6.237485
    15  H    7.122098   8.509158   8.687441   6.754608   6.740308
    16  H    3.311076   4.408040   5.165238   3.798561   3.365520
    17  O    3.548650   4.629106   5.378104   3.525123   4.073917
    18  H    4.314723   5.337377   6.146746   4.426502   4.768564
    19  H    2.731619   4.093854   4.419476   2.247740   2.845968
    20  O    2.789153   4.098911   4.371541   2.971107   2.154884
    21  H    2.602786   3.829983   3.901487   2.578931   1.913934
    22  H    4.926571   6.295994   6.792368   4.985953   4.656700
    23  O    5.059979   6.416589   6.902077   4.721594   5.170600
    24  H    5.718104   7.051262   7.614668   5.493435   5.830379
                    6          7          8          9         10
     6  C    0.000000
     7  O    1.231956   0.000000
     8  C    1.527634   2.412929   0.000000
     9  C    2.591001   3.737062   1.536232   0.000000
    10  C    3.978195   5.006513   2.601545   1.540140   0.000000
    11  C    5.132384   6.268420   3.942853   2.542117   1.528963
    12  H    5.294437   6.458516   4.260995   2.827210   2.178007
    13  H    5.295391   6.465561   4.263997   2.812437   2.186095
    14  O    6.337961   7.402630   5.002976   3.778053   2.402076
    15  H    7.065288   8.178909   5.810314   4.475504   3.240134
    16  H    2.121498   2.681113   1.095259   2.176919   2.867464
    17  O    2.394082   2.883393   1.422231   2.398392   2.950930
    18  H    2.989734   3.231569   1.952775   3.023943   3.269571
    19  H    2.795168   3.961104   2.126971   1.097690   2.144170
    20  O    2.975849   4.139158   2.433265   1.424584   2.427893
    21  H    3.256863   4.454697   3.029244   1.956523   3.031309
    22  H    4.308988   5.220214   2.876455   2.183375   1.095714
    23  O    4.464887   5.354440   3.075862   2.430758   1.427340
    24  H    4.918504   5.671077   3.445164   3.091838   1.958670
                   11         12         13         14         15
    11  C    0.000000
    12  H    1.095054   0.000000
    13  H    1.093389   1.787088   0.000000
    14  O    1.424023   2.043595   2.041568   0.000000
    15  H    1.945366   2.264078   2.261268   0.972351   0.000000
    16  H    4.279221   4.828799   4.501568   5.176497   6.033308
    17  O    4.351708   4.526352   4.967879   5.201066   6.060595
    18  H    4.761394   5.089987   5.392199   5.416856   6.338991
    19  H    2.755689   2.592908   3.135670   4.060218   4.637302
    20  O    2.891912   3.285233   2.588523   4.194641   4.721287
    21  H    3.169471   3.275282   2.797983   4.560295   4.941507
    22  H    2.138150   3.060323   2.510978   2.600888   3.492091
    23  O    2.299384   2.504647   3.286452   2.709243   3.559637
    24  H    2.914858   3.313998   3.858352   2.952244   3.872442
                   16         17         18         19         20
    16  H    0.000000
    17  O    2.032874   0.000000
    18  H    2.042676   0.972741   0.000000
    19  H    3.049823   2.621744   3.458535   0.000000
    20  O    2.748332   3.654958   4.211887   2.029280   0.000000
    21  H    3.551780   4.162106   4.857036   2.038461   0.971931
    22  H    2.709202   3.338036   3.375030   3.064998   2.742200
    23  O    3.492172   2.717294   2.976573   2.596173   3.662845
    24  H    3.610138   2.940746   2.875604   3.452065   4.282732
                   21         22         23         24
    21  H    0.000000
    22  H    3.551538   0.000000
    23  O    4.133624   2.124030   0.000000
    24  H    4.885045   2.173776   0.972422   0.000000
 Stoichiometry    C6H12O6
 Framework group  C1[X(C6H12O6)]
 Deg. of freedom    66
 Full point group                 C1      NOp   1
 Largest Abelian subgroup         C1      NOp   1
 Largest concise Abelian subgroup C1      NOp   1
                         Standard orientation:                         
 ---------------------------------------------------------------------
 Center     Atomic      Atomic             Coordinates (Angstroms)
 Number     Number       Type             X           Y           Z
 ---------------------------------------------------------------------
      1          6           0       -2.368716   -0.970327   -0.360544
      2          8           0       -3.756492   -1.203554   -0.493621
      3          1           0       -3.868884   -2.095966   -0.863351
      4          1           0       -1.907083   -1.043446   -1.348550
      5          1           0       -1.952986   -1.725258    0.310418
      6          6           0       -2.117229    0.410704    0.213704
      7          8           0       -3.046914    1.177284    0.470130
      8          6           0       -0.660952    0.820212    0.426372
      9          6           0        0.385060   -0.243898    0.060944
     10          6           0        1.854067    0.179091    0.248377
     11          6           0        2.822450   -0.931460   -0.159837
     12          1           0        2.727918   -1.165571   -1.225388
     13          1           0        2.670935   -1.840652    0.428304
     14          8           0        4.155353   -0.485766    0.069438
     15          1           0        4.747710   -1.207029   -0.203249
     16          1           0       -0.563565    1.108818    1.478424
     17          8           0       -0.402740    1.983946   -0.349379
     18          1           0       -0.211340    2.713636    0.264742
     19          1           0        0.239273   -0.472578   -1.002716
     20          8           0        0.134544   -1.453422    0.770686
     21          1           0       -0.094055   -2.139877    0.121708
     22          1           0        2.053761    0.433672    1.295230
     23          8           0        2.183487    1.216438   -0.675037
     24          1           0        2.532332    1.968915   -0.167405
 ---------------------------------------------------------------------
 Rotational constants (GHZ):      1.8332093      0.4568109      0.3886639
 Standard basis: 6-311G(d,p) (5D, 7F)
 There are   288 symmetry adapted basis functions of A   symmetry.
 Integral buffers will be    131072 words long.
 Raffenetti 2 integral format.
 Two-electron integral symmetry is turned on.
   288 basis functions,   480 primitive gaussians,   300 cartesian basis functions
    48 alpha electrons       48 beta electrons
       nuclear repulsion energy       781.0695107612 Hartrees.
 NAtoms=   24 NActive=   24 NUniq=   24 SFac= 1.00D+00 NAtFMM=   50 NAOKFM=F Big=F
 One-electron integrals computed using PRISM.
 NBasis=   288 RedAO= T  NBF=   288
 NBsUse=   288 1.00D-06 NBFU=   288
 Harris functional with IExCor=  402 diagonalized for initial guess.
 ExpMin= 1.03D-01 ExpMax= 8.59D+03 ExpMxC= 1.30D+03 IAcc=1 IRadAn=         1 AccDes= 0.00D+00
 HarFok:  IExCor=  402 AccDes= 0.00D+00 IRadAn=         1 IDoV= 1
 ScaDFX=  1.000000  1.000000  1.000000  1.000000
 FoFCou: FMM=F IPFlag=           0 FMFlag=      100000 FMFlg1=           0
         NFxFlg=           0 DoJE=T BraDBF=F KetDBF=T FulRan=T
         Omega=  0.000000  0.000000  1.000000  0.000000  0.000000 ICntrl=     500 IOpCl=  0
         NMat0=    1 NMatS0=    1 NMatT0=    0 NMatD0=    1 NMtDS0=    0 NMtDT0=    0
         I1Cent=           4 NGrid=           0.
 Petite list used in FoFCou.
 Initial guess orbital symmetries:
       Occupied  (A) (A) (A) (A) (A) (A) (A) (A) (A) (A) (A) (A)
                 (A) (A) (A) (A) (A) (A) (A) (A) (A) (A) (A) (A)
                 (A) (A) (A) (A) (A) (A) (A) (A) (A) (A) (A) (A)
                 (A) (A) (A) (A) (A) (A) (A) (A) (A) (A) (A) (A)
       Virtual   (A) (A) (A) (A) (A) (A) (A) (A) (A) (A) (A) (A)
                 (A) (A) (A) (A) (A) (A) (A) (A) (A) (A) (A) (A)
                 (A) (A) (A) (A) (A) (A) (A) (A) (A) (A) (A) (A)
                 (A) (A) (A) (A) (A) (A) (A) (A) (A) (A) (A) (A)
                 (A) (A) (A) (A) (A) (A) (A) (A) (A) (A) (A) (A)
                 (A) (A) (A) (A) (A) (A) (A) (A) (A) (A) (A) (A)
                 (A) (A) (A) (A) (A) (A) (A) (A) (A) (A) (A) (A)
                 (A) (A) (A) (A) (A) (A) (A) (A) (A) (A) (A) (A)
                 (A) (A) (A) (A) (A) (A) (A) (A) (A) (A) (A) (A)
                 (A) (A) (A) (A) (A) (A) (A) (A) (A) (A) (A) (A)
                 (A) (A) (A) (A) (A) (A) (A) (A) (A) (A) (A) (A)
                 (A) (A) (A) (A) (A) (A) (A) (A) (A) (A) (A) (A)
                 (A) (A) (A) (A) (A) (A) (A) (A) (A) (A) (A) (A)
                 (A) (A) (A) (A) (A) (A) (A) (A) (A) (A) (A) (A)
                 (A) (A) (A) (A) (A) (A) (A) (A) (A) (A) (A) (A)
                 (A) (A) (A) (A) (A) (A) (A) (A) (A) (A) (A) (A)
                 (A) (A) (A) (A) (A) (A) (A) (A) (A) (A) (A) (A)
                 (A) (A) (A) (A) (A) (A) (A) (A) (A) (A) (A) (A)
                 (A) (A) (A) (A) (A) (A) (A) (A) (A) (A) (A) (A)
                 (A) (A) (A) (A) (A) (A) (A) (A) (A) (A) (A) (A)
 The electronic state of the initial guess is 1-A.
 Requested convergence on RMS density matrix=1.00D-08 within 128 cycles.
 Requested convergence on MAX density matrix=1.00D-06.
 Requested convergence on             energy=1.00D-06.
 No special actions if energy rises.
 Keep R1 ints in memory in canonical form, NReq=1033417440.
 Integral accuracy reduced to 1.0D-05 until final iterations.
 Initial convergence to 1.0D-05 achieved.  Increase integral accuracy.
 SCF Done:  E(RB3LYP) =  -687.313822496     A.U. after   14 cycles
             Convg  =    0.4996D-08             -V/T =  2.0030

 **********************************************************************

            Population analysis using the SCF density.

 **********************************************************************

 Orbital symmetries:
       Occupied  (A) (A) (A) (A) (A) (A) (A) (A) (A) (A) (A) (A)
                 (A) (A) (A) (A) (A) (A) (A) (A) (A) (A) (A) (A)
                 (A) (A) (A) (A) (A) (A) (A) (A) (A) (A) (A) (A)
                 (A) (A) (A) (A) (A) (A) (A) (A) (A) (A) (A) (A)
       Virtual   (A) (A) (A) (A) (A) (A) (A) (A) (A) (A) (A) (A)
                 (A) (A) (A) (A) (A) (A) (A) (A) (A) (A) (A) (A)
                 (A) (A) (A) (A) (A) (A) (A) (A) (A) (A) (A) (A)
                 (A) (A) (A) (A) (A) (A) (A) (A) (A) (A) (A) (A)
                 (A) (A) (A) (A) (A) (A) (A) (A) (A) (A) (A) (A)
                 (A) (A) (A) (A) (A) (A) (A) (A) (A) (A) (A) (A)
                 (A) (A) (A) (A) (A) (A) (A) (A) (A) (A) (A) (A)
                 (A) (A) (A) (A) (A) (A) (A) (A) (A) (A) (A) (A)
                 (A) (A) (A) (A) (A) (A) (A) (A) (A) (A) (A) (A)
                 (A) (A) (A) (A) (A) (A) (A) (A) (A) (A) (A) (A)
                 (A) (A) (A) (A) (A) (A) (A) (A) (A) (A) (A) (A)
                 (A) (A) (A) (A) (A) (A) (A) (A) (A) (A) (A) (A)
                 (A) (A) (A) (A) (A) (A) (A) (A) (A) (A) (A) (A)
                 (A) (A) (A) (A) (A) (A) (A) (A) (A) (A) (A) (A)
                 (A) (A) (A) (A) (A) (A) (A) (A) (A) (A) (A) (A)
                 (A) (A) (A) (A) (A) (A) (A) (A) (A) (A) (A) (A)
                 (A) (A) (A) (A) (A) (A) (A) (A) (A) (A) (A) (A)
                 (A) (A) (A) (A) (A) (A) (A) (A) (A) (A) (A) (A)
                 (A) (A) (A) (A) (A) (A) (A) (A) (A) (A) (A) (A)
                 (A) (A) (A) (A) (A) (A) (A) (A) (A) (A) (A) (A)
 The electronic state is 1-A.
 Alpha  occ. eigenvalues --  -19.14338 -19.12632 -19.11829 -19.11588 -19.11406
 Alpha  occ. eigenvalues --  -19.11229 -10.26478 -10.24242 -10.24127 -10.23424
 Alpha  occ. eigenvalues --  -10.23165 -10.21563  -1.05976  -1.04755  -1.03500
 Alpha  occ. eigenvalues --   -1.03010  -1.01684  -1.00945  -0.79053  -0.75772
 Alpha  occ. eigenvalues --   -0.71370  -0.65618  -0.59652  -0.57479  -0.54973
 Alpha  occ. eigenvalues --   -0.53432  -0.53142  -0.51913  -0.50748  -0.48629
 Alpha  occ. eigenvalues --   -0.47718  -0.45175  -0.43907  -0.43398  -0.42069
 Alpha  occ. eigenvalues --   -0.40974  -0.37555  -0.36726  -0.35744  -0.35186
 Alpha  occ. eigenvalues --   -0.34078  -0.33258  -0.32092  -0.30964  -0.28083
 Alpha  occ. eigenvalues --   -0.27256  -0.26782  -0.24417
 Alpha virt. eigenvalues --   -0.04044   0.00159   0.01778   0.03054   0.03228
 Alpha virt. eigenvalues --    0.05769   0.06489   0.08599   0.09529   0.10963
 Alpha virt. eigenvalues --    0.12040   0.12660   0.13797   0.15843   0.17003
 Alpha virt. eigenvalues --    0.18728   0.20050   0.20585   0.22540   0.24081
 Alpha virt. eigenvalues --    0.26736   0.27977   0.29583   0.31509   0.35416
 Alpha virt. eigenvalues --    0.37219   0.37868   0.38526   0.38776   0.39453
 Alpha virt. eigenvalues --    0.40616   0.42355   0.43804   0.45009   0.46683
 Alpha virt. eigenvalues --    0.47260   0.48510   0.48964   0.50070   0.51939
 Alpha virt. eigenvalues --    0.52763   0.53792   0.54016   0.54675   0.58675
 Alpha virt. eigenvalues --    0.59305   0.60022   0.60081   0.61821   0.62174
 Alpha virt. eigenvalues --    0.62947   0.64520   0.66695   0.69087   0.71480
 Alpha virt. eigenvalues --    0.73087   0.77841   0.78514   0.78842   0.80444
 Alpha virt. eigenvalues --    0.81664   0.83473   0.84672   0.86123   0.87184
 Alpha virt. eigenvalues --    0.87666   0.88865   0.89974   0.92221   0.93728
 Alpha virt. eigenvalues --    0.95052   0.96966   0.98492   0.99519   1.06873
 Alpha virt. eigenvalues --    1.07620   1.09301   1.11281   1.12523   1.17841
 Alpha virt. eigenvalues --    1.18972   1.21135   1.24069   1.29932   1.31567
 Alpha virt. eigenvalues --    1.32870   1.35270   1.36722   1.37933   1.38431
 Alpha virt. eigenvalues --    1.40304   1.40457   1.42388   1.43354   1.44549
 Alpha virt. eigenvalues --    1.44721   1.47152   1.49159   1.49722   1.52083
 Alpha virt. eigenvalues --    1.53132   1.55255   1.56081   1.56885   1.58483
 Alpha virt. eigenvalues --    1.58944   1.59913   1.61208   1.62670   1.63759
 Alpha virt. eigenvalues --    1.65823   1.66418   1.68879   1.69992   1.72649
 Alpha virt. eigenvalues --    1.74908   1.75079   1.76914   1.79057   1.82581
 Alpha virt. eigenvalues --    1.84758   1.86479   1.90848   1.92364   1.93721
 Alpha virt. eigenvalues --    1.94189   1.96447   1.98148   1.99923   2.00601
 Alpha virt. eigenvalues --    2.01408   2.03202   2.07614   2.07866   2.10331
 Alpha virt. eigenvalues --    2.14041   2.16127   2.18086   2.19702   2.22721
 Alpha virt. eigenvalues --    2.23465   2.30005   2.33548   2.36137   2.40039
 Alpha virt. eigenvalues --    2.40417   2.42736   2.43795   2.48590   2.50276
 Alpha virt. eigenvalues --    2.51912   2.52823   2.53487   2.55696   2.58953
 Alpha virt. eigenvalues --    2.61942   2.67946   2.69323   2.74028   2.75743
 Alpha virt. eigenvalues --    2.76543   2.82465   2.82792   2.83980   2.86467
 Alpha virt. eigenvalues --    2.88421   2.90421   2.91615   2.92070   2.96086
 Alpha virt. eigenvalues --    2.98933   3.02080   3.05073   3.08757   3.10190
 Alpha virt. eigenvalues --    3.10725   3.13352   3.13719   3.16624   3.17116
 Alpha virt. eigenvalues --    3.18902   3.19842   3.23289   3.24719   3.26257
 Alpha virt. eigenvalues --    3.29240   3.30338   3.31646   3.32770   3.34106
 Alpha virt. eigenvalues --    3.44928   3.48840   3.58925   3.72097   3.77711
 Alpha virt. eigenvalues --    3.78826   3.79270   3.80142   3.81594   3.83992
 Alpha virt. eigenvalues --    3.87298   3.89194   3.90701   3.92238   3.92799
 Alpha virt. eigenvalues --    4.01531   4.04464   4.09042   4.20019   4.34883
 Alpha virt. eigenvalues --    4.83170   4.85393   4.89428   4.93085   4.99946
 Alpha virt. eigenvalues --    5.01810   5.06240   5.21279   5.25574   5.27273
 Alpha virt. eigenvalues --    5.28450   5.32078   5.55835   5.58148   5.61452
 Alpha virt. eigenvalues --    5.62310   5.65570   5.67030  23.67067  23.75416
 Alpha virt. eigenvalues --   23.77367  23.79154  23.80084  23.82224  49.85753
 Alpha virt. eigenvalues --   49.88661  49.89909  49.90365  49.93240  49.96197
          Condensed to atoms (all electrons):
              1          2          3          4          5          6
     1  C    5.053776   0.257448  -0.034229   0.387210   0.379300   0.195573
     2  O    0.257448   7.911587   0.302586  -0.029843  -0.023722  -0.038423
     3  H   -0.034229   0.302586   0.499081  -0.005865  -0.004872   0.010528
     4  H    0.387210  -0.029843  -0.005865   0.598534  -0.030945  -0.051386
     5  H    0.379300  -0.023722  -0.004872  -0.030945   0.572784  -0.038095
     6  C    0.195573  -0.038423   0.010528  -0.051386  -0.038095   4.978079
     7  O   -0.089636   0.004198  -0.000067   0.001126   0.001275   0.650177
     8  C   -0.120330   0.002360  -0.000662   0.012903   0.008777   0.214084
     9  C    0.003901  -0.000054   0.000065  -0.003130  -0.014160  -0.053343
    10  C    0.000023  -0.000001  -0.000004   0.000452   0.001785   0.002212
    11  C   -0.000006   0.000000   0.000000  -0.000026  -0.000309  -0.000061
    12  H   -0.000013   0.000000   0.000000  -0.000098  -0.000001   0.000046
    13  H    0.000008   0.000000   0.000000   0.000009  -0.000075   0.000000
    14  O    0.000000   0.000000   0.000000   0.000000   0.000000   0.000000
    15  H    0.000000   0.000000   0.000000   0.000000   0.000000   0.000000
    16  H    0.009686  -0.000123   0.000038   0.000221  -0.000449  -0.027676
    17  O    0.003979  -0.000007   0.000010   0.000076   0.000186  -0.054999
    18  H   -0.000236   0.000002  -0.000001  -0.000143  -0.000066   0.000577
    19  H   -0.003168  -0.000313   0.000008   0.005464   0.001813  -0.007228
    20  O   -0.014059   0.000234  -0.000072  -0.001316   0.028104   0.003582
    21  H    0.008370  -0.000635  -0.000092  -0.000342  -0.003582  -0.002466
    22  H   -0.000133   0.000000   0.000000  -0.000072   0.000113   0.000095
    23  O   -0.000044   0.000000   0.000000  -0.000065  -0.000038  -0.000054
    24  H   -0.000004   0.000000   0.000000   0.000008   0.000013   0.000230
              7          8          9         10         11         12
     1  C   -0.089636  -0.120330   0.003901   0.000023  -0.000006  -0.000013
     2  O    0.004198   0.002360  -0.000054  -0.000001   0.000000   0.000000
     3  H   -0.000067  -0.000662   0.000065  -0.000004   0.000000   0.000000
     4  H    0.001126   0.012903  -0.003130   0.000452  -0.000026  -0.000098
     5  H    0.001275   0.008777  -0.014160   0.001785  -0.000309  -0.000001
     6  C    0.650177   0.214084  -0.053343   0.002212  -0.000061   0.000046
     7  O    7.779436  -0.071515   0.004675  -0.000120   0.000001   0.000000
     8  C   -0.071515   5.253112   0.182340  -0.016670   0.005453  -0.000523
     9  C    0.004675   0.182340   5.449555   0.144187  -0.071747   0.000443
    10  C   -0.000120  -0.016670   0.144187   5.187086   0.306288  -0.039674
    11  C    0.000001   0.005453  -0.071747   0.306288   4.831573   0.381126
    12  H    0.000000  -0.000523   0.000443  -0.039674   0.381126   0.636838
    13  H    0.000000  -0.000197   0.004486  -0.047284   0.380832  -0.045178
    14  O    0.000000  -0.000044   0.003172  -0.048666   0.276756  -0.036359
    15  H    0.000000   0.000018  -0.000702   0.009692  -0.034392  -0.006324
    16  H    0.002932   0.358116  -0.032126  -0.013246  -0.000383  -0.000053
    17  O    0.000318   0.281207  -0.082963   0.008161  -0.000208  -0.000042
    18  H    0.002100  -0.023785   0.005618   0.002117   0.000464  -0.000010
    19  H   -0.000039  -0.061395   0.378290  -0.034942  -0.013763   0.007509
    20  O   -0.000045  -0.041575   0.193488  -0.045203   0.004805  -0.000494
    21  H    0.000062   0.011595  -0.026464  -0.002375   0.002486  -0.000437
    22  H   -0.000009  -0.012851  -0.037586   0.367036  -0.040736   0.012427
    23  O    0.000000  -0.002078  -0.057634   0.255519  -0.071706   0.002250
    24  H   -0.000003   0.001701   0.004210  -0.027225   0.003070  -0.001161
             13         14         15         16         17         18
     1  C    0.000008   0.000000   0.000000   0.009686   0.003979  -0.000236
     2  O    0.000000   0.000000   0.000000  -0.000123  -0.000007   0.000002
     3  H    0.000000   0.000000   0.000000   0.000038   0.000010  -0.000001
     4  H    0.000009   0.000000   0.000000   0.000221   0.000076  -0.000143
     5  H   -0.000075   0.000000   0.000000  -0.000449   0.000186  -0.000066
     6  C    0.000000   0.000000   0.000000  -0.027676  -0.054999   0.000577
     7  O    0.000000   0.000000   0.000000   0.002932   0.000318   0.002100
     8  C   -0.000197  -0.000044   0.000018   0.358116   0.281207  -0.023785
     9  C    0.004486   0.003172  -0.000702  -0.032126  -0.082963   0.005618
    10  C   -0.047284  -0.048666   0.009692  -0.013246   0.008161   0.002117
    11  C    0.380832   0.276756  -0.034392  -0.000383  -0.000208   0.000464
    12  H   -0.045178  -0.036359  -0.006324  -0.000053  -0.000042  -0.000010
    13  H    0.638459  -0.037248  -0.005821   0.000138  -0.000007  -0.000019
    14  O   -0.037248   7.932452   0.308786  -0.000010   0.000000  -0.000004
    15  H   -0.005821   0.308786   0.492018   0.000001   0.000000   0.000001
    16  H    0.000138  -0.000010   0.000001   0.595652  -0.022823  -0.020143
    17  O   -0.000007   0.000000   0.000000  -0.022823   7.913823   0.310748
    18  H   -0.000019  -0.000004   0.000001  -0.020143   0.310748   0.473907
    19  H    0.000807  -0.000289  -0.000033   0.012547   0.007822  -0.001316
    20  O    0.013886   0.000040   0.000002   0.004430   0.001377  -0.000228
    21  H    0.001467  -0.000027  -0.000007  -0.001407  -0.000431   0.000063
    22  H   -0.004945   0.006879  -0.000567   0.004559   0.000001  -0.000257
    23  O    0.006884   0.002232  -0.000022  -0.000161  -0.005149   0.006841
    24  H   -0.000380   0.003498  -0.000020  -0.000085   0.006761  -0.000067
             19         20         21         22         23         24
     1  C   -0.003168  -0.014059   0.008370  -0.000133  -0.000044  -0.000004
     2  O   -0.000313   0.000234  -0.000635   0.000000   0.000000   0.000000
     3  H    0.000008  -0.000072  -0.000092   0.000000   0.000000   0.000000
     4  H    0.005464  -0.001316  -0.000342  -0.000072  -0.000065   0.000008
     5  H    0.001813   0.028104  -0.003582   0.000113  -0.000038   0.000013
     6  C   -0.007228   0.003582  -0.002466   0.000095  -0.000054   0.000230
     7  O   -0.000039  -0.000045   0.000062  -0.000009   0.000000  -0.000003
     8  C   -0.061395  -0.041575   0.011595  -0.012851  -0.002078   0.001701
     9  C    0.378290   0.193488  -0.026464  -0.037586  -0.057634   0.004210
    10  C   -0.034942  -0.045203  -0.002375   0.367036   0.255519  -0.027225
    11  C   -0.013763   0.004805   0.002486  -0.040736  -0.071706   0.003070
    12  H    0.007509  -0.000494  -0.000437   0.012427   0.002250  -0.001161
    13  H    0.000807   0.013886   0.001467  -0.004945   0.006884  -0.000380
    14  O   -0.000289   0.000040  -0.000027   0.006879   0.002232   0.003498
    15  H   -0.000033   0.000002  -0.000007  -0.000567  -0.000022  -0.000020
    16  H    0.012547   0.004430  -0.001407   0.004559  -0.000161  -0.000085
    17  O    0.007822   0.001377  -0.000431   0.000001  -0.005149   0.006761
    18  H   -0.001316  -0.000228   0.000063  -0.000257   0.006841  -0.000067
    19  H    0.627278  -0.033533  -0.024997   0.012506   0.007813  -0.001235
    20  O   -0.033533   7.978635   0.306750   0.003309   0.001312  -0.000169
    21  H   -0.024997   0.306750   0.487654  -0.001296   0.000007  -0.000004
    22  H    0.012506   0.003309  -0.001296   0.621040  -0.026196  -0.016196
    23  O    0.007813   0.001312   0.000007  -0.026196   7.943098   0.309226
    24  H   -0.001235  -0.000169  -0.000004  -0.016196   0.309226   0.479067
 Mulliken atomic charges:
              1
     1  C   -0.037418
     2  O   -0.385293
     3  H    0.233547
     4  H    0.117227
     5  H    0.122163
     6  C    0.218548
     7  O   -0.284865
     8  C    0.019957
     9  C    0.005478
    10  C   -0.009149
    11  C    0.040482
    12  H    0.089726
    13  H    0.094175
    14  O   -0.411168
    15  H    0.237371
    16  H    0.130366
    17  O   -0.367840
    18  H    0.243837
    19  H    0.120397
    20  O   -0.403261
    21  H    0.246108
    22  H    0.112880
    23  O   -0.372036
    24  H    0.238766
 Sum of Mulliken atomic charges =   0.00000
 Mulliken charges with hydrogens summed into heavy atoms:
              1
     1  C    0.201973
     2  O   -0.151746
     6  C    0.218548
     7  O   -0.284865
     8  C    0.150323
     9  C    0.125875
    10  C    0.103731
    11  C    0.224383
    14  O   -0.173797
    17  O   -0.124002
    20  O   -0.157153
    23  O   -0.133270
 Sum of Mulliken charges with hydrogens summed into heavy atoms =   0.00000
 Electronic spatial extent (au):  <R**2>=           2754.2114
 Charge=              0.0000 electrons
 Dipole moment (field-independent basis, Debye):
    X=              3.1922    Y=             -3.5654    Z=             -0.0760  Tot=              4.7862
 Quadrupole moment (field-independent basis, Debye-Ang):
   XX=            -85.6685   YY=            -57.1962   ZZ=            -72.0180
   XY=              6.6125   XZ=              3.6055   YZ=             10.3104
 Traceless Quadrupole moment (field-independent basis, Debye-Ang):
   XX=            -14.0409   YY=             14.4314   ZZ=             -0.3904
   XY=              6.6125   XZ=              3.6055   YZ=             10.3104
 Octapole moment (field-independent basis, Debye-Ang**2):
  XXX=             82.7030  YYY=              0.6848  ZZZ=             -1.9311  XYY=              8.6880
  XXY=            -57.5909  XXZ=            -18.8825  XZZ=             -5.7598  YZZ=             -0.5443
  YYZ=             -0.9355  XYZ=              2.2990
 Hexadecapole moment (field-independent basis, Debye-Ang**3):
 XXXX=          -2614.6709 YYYY=           -472.7854 ZZZZ=           -170.4811 XXXY=            -18.6602
 XXXZ=             -1.8238 YYYX=             84.8637 YYYZ=             33.6150 ZZZX=              4.5732
 ZZZY=              8.0011 XXYY=           -393.0294 XXZZ=           -442.8605 YYZZ=           -131.4804
 XXYZ=             42.5040 YYXZ=             22.1465 ZZXY=              8.6220
 N-N= 7.810695107612D+02 E-N=-3.178365957643D+03  KE= 6.852549669514D+02
 Calling FoFJK, ICntrl=      2127 FMM=F ISym2X=0 I1Cent= 0 IOpClX= 0 NMat=1 NMatS=1 NMatT=0.
 ***** Axes restored to original set *****
 -------------------------------------------------------------------
 Center     Atomic                   Forces (Hartrees/Bohr)
 Number     Number              X              Y              Z
 -------------------------------------------------------------------
      1        6           0.004579070    0.003789377    0.023397197
      2        8           0.004410375   -0.001974235    0.009464469
      3        1          -0.010914142    0.000115779   -0.003742190
      4        1           0.000971317   -0.002726344   -0.009280659
      5        1          -0.003019660   -0.001687598   -0.003789540
      6        6          -0.023723877   -0.000790669    0.033576974
      7        8           0.031188018    0.001998330   -0.030796268
      8        6          -0.011982408    0.002214746   -0.014420354
      9        6           0.008970462   -0.012807119    0.003332090
     10        6           0.016640047   -0.013880187   -0.008406088
     11        6           0.013284976    0.014795198   -0.005810332
     12        1          -0.002688647   -0.001969978    0.009377140
     13        1           0.000532584    0.000953881    0.007509201
     14        8           0.001711169    0.001314720   -0.009490804
     15        1          -0.010933929   -0.000033481    0.004712948
     16        1           0.006079280    0.007466467    0.002211205
     17        8          -0.014921750   -0.001031927    0.000438747
     18        1           0.011242403   -0.006511902    0.007062709
     19        1          -0.005707431   -0.005298181   -0.006141982
     20        8           0.010638132    0.010054469   -0.001042351
     21        1          -0.009909109    0.006332331   -0.008859354
     22        1          -0.003245541   -0.001491556    0.000212070
     23        8          -0.023928737    0.006375424   -0.005664107
     24        1           0.010727396   -0.005207543    0.006149280
 -------------------------------------------------------------------
 Cartesian Forces:  Max     0.033576974 RMS     0.010832642

 GradGradGradGradGradGradGradGradGradGradGradGradGradGradGradGradGradGrad
 Berny optimization.
 Internal  Forces:  Max     0.043592771 RMS     0.009041070
 Search for a local minimum.
 Step number   1 out of a maximum of  125
 All quantities printed in internal units (Hartrees-Bohrs-Radians)
 Mixed Optimization -- RFO/linear search
 Second derivative matrix not updated -- first step.
 ITU=  0
     Eigenvalues ---    0.00235   0.00287   0.00383   0.00400   0.00474
     Eigenvalues ---    0.00546   0.01330   0.01367   0.01374   0.01398
     Eigenvalues ---    0.01513   0.03721   0.04319   0.04408   0.04671
     Eigenvalues ---    0.05219   0.05249   0.05269   0.05567   0.06358
     Eigenvalues ---    0.07288   0.07362   0.07684   0.08477   0.11472
     Eigenvalues ---    0.11550   0.13692   0.13970   0.15909   0.16000
     Eigenvalues ---    0.16000   0.16000   0.16000   0.16000   0.17760
     Eigenvalues ---    0.18266   0.19154   0.19831   0.20268   0.22028
     Eigenvalues ---    0.22170   0.24991   0.25000   0.28507   0.28855
     Eigenvalues ---    0.29519   0.29643   0.30691   0.33939   0.34161
     Eigenvalues ---    0.34212   0.34235   0.34424   0.34470   0.34557
     Eigenvalues ---    0.41374   0.41777   0.41860   0.42126   0.43452
     Eigenvalues ---    0.52821   0.52872   0.52885   0.52899   0.52984
     Eigenvalues ---    0.90276
 RFO step:  Lambda=-3.58977914D-02 EMin= 2.34970769D-03
 Linear search not attempted -- first point.
 Maximum step size (   0.300) exceeded in Quadratic search.
    -- Step size scaled by   0.904
 Iteration  1 RMS(Cart)=  0.21206816 RMS(Int)=  0.00915462
 Iteration  2 RMS(Cart)=  0.01966556 RMS(Int)=  0.00070844
 Iteration  3 RMS(Cart)=  0.00021997 RMS(Int)=  0.00070443
 Iteration  4 RMS(Cart)=  0.00000009 RMS(Int)=  0.00070443
 Variable       Old X    -DE/DX   Delta X   Delta X   Delta X     New X
                                 (Linear)    (Quad)   (Total)
    R1        2.67116   0.00572   0.00000   0.01100   0.01100   2.68216
    R2        2.06543   0.00566   0.00000   0.01344   0.01344   2.07887
    R3        2.06400  -0.00162   0.00000  -0.00383  -0.00383   2.06016
    R4        2.86607   0.00187   0.00000   0.00492   0.00492   2.87099
    R5        1.83773  -0.01154   0.00000  -0.01847  -0.01847   1.81926
    R6        2.32806  -0.04359   0.00000  -0.04199  -0.04199   2.28607
    R7        2.88681   0.01911   0.00000   0.05199   0.05199   2.93880
    R8        2.90306   0.01265   0.00000   0.03525   0.03525   2.93831
    R9        2.06974   0.00187   0.00000   0.00447   0.00447   2.07421
   R10        2.68763   0.00609   0.00000   0.01205   0.01205   2.69967
   R11        2.91044   0.00114   0.00000   0.00322   0.00322   2.91366
   R12        2.07433  -0.00024   0.00000  -0.00058  -0.00058   2.07375
   R13        2.69207   0.01068   0.00000   0.02128   0.02128   2.71336
   R14        2.88932  -0.00112   0.00000  -0.00306  -0.00306   2.88626
   R15        2.07060   0.00048   0.00000   0.00114   0.00114   2.07174
   R16        2.69728   0.00384   0.00000   0.00771   0.00771   2.70500
   R17        2.06935   0.00215   0.00000   0.00514   0.00514   2.07449
   R18        2.06621   0.00274   0.00000   0.00651   0.00651   2.07271
   R19        2.69101   0.00627   0.00000   0.01246   0.01246   2.70348
   R20        1.83748  -0.01188   0.00000  -0.01902  -0.01902   1.81846
   R21        1.83821  -0.01445   0.00000  -0.02316  -0.02316   1.81506
   R22        1.83668  -0.01418   0.00000  -0.02266  -0.02266   1.81402
   R23        1.83761  -0.01308   0.00000  -0.02095  -0.02095   1.81666
    A1        1.89497   0.00694   0.00000   0.03651   0.03606   1.93103
    A2        1.89387   0.00706   0.00000   0.03916   0.03881   1.93268
    A3        1.92697  -0.00788   0.00000  -0.02562  -0.02548   1.90148
    A4        1.92656  -0.00109   0.00000  -0.00832  -0.00942   1.91714
    A5        1.91043  -0.00292   0.00000  -0.02359  -0.02358   1.88685
    A6        1.91099  -0.00202   0.00000  -0.01743  -0.01739   1.89360
    A7        1.87619  -0.00053   0.00000  -0.00243  -0.00243   1.87377
    A8        2.11798  -0.01280   0.00000  -0.04075  -0.04099   2.07698
    A9        2.04303   0.03701   0.00000   0.11675   0.11653   2.15956
   A10        2.12188  -0.02425   0.00000  -0.07696  -0.07716   2.04472
   A11        2.01561   0.02962   0.00000   0.11579   0.11672   2.13234
   A12        1.86411  -0.00689   0.00000  -0.03569  -0.03473   1.82938
   A13        1.89282  -0.02064   0.00000  -0.07884  -0.08016   1.81266
   A14        1.92887  -0.01248   0.00000  -0.05362  -0.05270   1.87617
   A15        1.88958  -0.00005   0.00000   0.00912   0.01047   1.90005
   A16        1.86730   0.00916   0.00000   0.03839   0.03710   1.90439
   A17        2.01558   0.00205   0.00000  -0.01137  -0.01234   2.00324
   A18        1.85915   0.00116   0.00000   0.03068   0.02998   1.88912
   A19        1.92822   0.00371   0.00000   0.00352   0.00105   1.92927
   A20        1.87740  -0.00182   0.00000  -0.01375  -0.01268   1.86472
   A21        1.91801  -0.01164   0.00000  -0.06948  -0.06987   1.84814
   A22        1.85723   0.00748   0.00000   0.07173   0.07098   1.92821
   A23        1.95210  -0.00783   0.00000  -0.02038  -0.02144   1.93066
   A24        1.93255   0.00149   0.00000  -0.01795  -0.01852   1.91404
   A25        1.91878  -0.00038   0.00000   0.01203   0.01176   1.93054
   A26        1.88432  -0.00098   0.00000  -0.01515  -0.01543   1.86889
   A27        1.78133   0.01289   0.00000   0.07720   0.07726   1.85859
   A28        1.99016  -0.00489   0.00000  -0.03061  -0.03052   1.95964
   A29        1.93950  -0.00592   0.00000  -0.04270  -0.04263   1.89686
   A30        1.95260  -0.00087   0.00000  -0.01517  -0.01512   1.93748
   A31        1.89918  -0.01131   0.00000  -0.03708  -0.03689   1.86229
   A32        1.91100   0.00071   0.00000   0.00155  -0.00040   1.91060
   A33        1.88009   0.01048   0.00000   0.05590   0.05486   1.93495
   A34        1.87901   0.00773   0.00000   0.04288   0.04227   1.92128
   A35        1.86806   0.00129   0.00000   0.00595   0.00595   1.87401
   A36        1.88091   0.00419   0.00000   0.01933   0.01933   1.90024
   A37        1.88426   0.00289   0.00000   0.01333   0.01333   1.89759
   A38        1.88331   0.00536   0.00000   0.02476   0.02476   1.90807
    D1        1.04720   0.00367   0.00000   0.01966   0.02046   1.06766
    D2       -1.04720  -0.00315   0.00000  -0.01429  -0.01507  -1.06227
    D3        3.14159  -0.00033   0.00000  -0.00192  -0.00194   3.13965
    D4       -0.02957   0.00117   0.00000   0.02331   0.02308  -0.00649
    D5        3.13798   0.00315   0.00000   0.06556   0.06570  -3.07950
    D6        2.05550   0.00303   0.00000   0.03772   0.03746   2.09297
    D7       -1.06014   0.00501   0.00000   0.07998   0.08009  -0.98005
    D8       -2.11363  -0.00140   0.00000   0.00176   0.00170  -2.11193
    D9        1.05392   0.00058   0.00000   0.04402   0.04432   1.09824
   D10       -0.02602  -0.00358   0.00000  -0.05330  -0.05208  -0.07809
   D11       -2.17862  -0.00209   0.00000  -0.03446  -0.03336  -2.21198
   D12        2.09755   0.00087   0.00000  -0.02236  -0.02411   2.07344
   D13        3.14159  -0.00178   0.00000  -0.01152  -0.01068   3.13091
   D14        0.98899  -0.00029   0.00000   0.00732   0.00803   0.99702
   D15       -1.01803   0.00267   0.00000   0.01941   0.01728  -1.00074
   D16        3.12086  -0.00052   0.00000   0.00465   0.00579   3.12665
   D17        1.03783  -0.00029   0.00000   0.00705   0.00815   1.04598
   D18       -0.97232  -0.01162   0.00000  -0.09630  -0.09563  -1.06795
   D19       -1.04426   0.00212   0.00000  -0.00045  -0.00040  -1.04466
   D20       -3.12730   0.00234   0.00000   0.00195   0.00197  -3.12533
   D21        1.14574  -0.00899   0.00000  -0.10141  -0.10181   1.04393
   D22        0.99555   0.00614   0.00000   0.02117   0.02047   1.01603
   D23       -1.08748   0.00637   0.00000   0.02357   0.02284  -1.06464
   D24       -3.09763  -0.00497   0.00000  -0.07979  -0.08095   3.10461
   D25        2.00493  -0.01351   0.00000  -0.07580  -0.07587   1.92906
   D26       -2.07914   0.00973   0.00000   0.02229   0.02181  -2.05733
   D27        0.00000  -0.00001   0.00000  -0.01510  -0.01454  -0.01454
   D28       -3.12566  -0.00840   0.00000  -0.10481  -0.10399   3.05353
   D29        1.05505  -0.00290   0.00000  -0.05946  -0.05901   0.99605
   D30       -1.15972   0.00264   0.00000  -0.01543  -0.01492  -1.17464
   D31       -1.05269  -0.00695   0.00000  -0.08277  -0.08271  -1.13541
   D32        3.12801  -0.00145   0.00000  -0.03742  -0.03772   3.09029
   D33        0.91324   0.00408   0.00000   0.00661   0.00636   0.91961
   D34        0.96229  -0.00518   0.00000  -0.04168  -0.04189   0.92040
   D35       -1.14019   0.00032   0.00000   0.00367   0.00310  -1.13709
   D36        2.92823   0.00585   0.00000   0.04770   0.04719   2.97541
   D37        2.01135   0.00571   0.00000   0.08627   0.08648   2.09783
   D38       -2.02772   0.00229   0.00000   0.02079   0.02207  -2.00565
   D39        0.00000  -0.00165   0.00000   0.00874   0.00726   0.00726
   D40        1.09888   0.00069   0.00000   0.02120   0.02112   1.11999
   D41       -1.04308   0.00469   0.00000   0.06106   0.06085  -0.98223
   D42       -3.11698   0.00296   0.00000   0.04117   0.04125  -3.07573
   D43       -3.05394  -0.00307   0.00000  -0.02439  -0.02434  -3.07828
   D44        1.08729   0.00093   0.00000   0.01547   0.01539   1.10268
   D45       -0.98661  -0.00080   0.00000  -0.00442  -0.00421  -0.99082
   D46       -0.95145  -0.00260   0.00000  -0.02715  -0.02715  -0.97860
   D47       -3.09340   0.00141   0.00000   0.01271   0.01258  -3.08082
   D48        1.11588  -0.00033   0.00000  -0.00719  -0.00702   1.10886
   D49        2.18207   0.00039   0.00000  -0.01503  -0.01568   2.16639
   D50       -2.02702  -0.00196   0.00000   0.00788   0.00890  -2.01812
   D51        0.00000   0.00240   0.00000   0.02236   0.02200   0.02200
   D52       -3.13543   0.00144   0.00000   0.00793   0.00815  -3.12728
   D53       -1.03109  -0.00602   0.00000  -0.03193  -0.03355  -1.06463
   D54        1.02827   0.00448   0.00000   0.02231   0.02371   1.05198
         Item               Value     Threshold  Converged?
 Maximum Force            0.043593     0.000450     NO 
 RMS     Force            0.009041     0.000300     NO 
 Maximum Displacement     0.793190     0.001800     NO 
 RMS     Displacement     0.219583     0.001200     NO 
 Predicted change in Energy=-2.111622D-02
 GradGradGradGradGradGradGradGradGradGradGradGradGradGradGradGradGradGrad

                          Input orientation:                          
 ---------------------------------------------------------------------
 Center     Atomic      Atomic             Coordinates (Angstroms)
 Number     Number       Type             X           Y           Z
 ---------------------------------------------------------------------
      1          6           0       -0.038315   -0.024829    0.269851
      2          8           0       -0.325572   -0.052625    1.659537
      3          1           0        0.515192   -0.104231    2.125654
      4          1           0        0.485135   -0.942672   -0.036359
      5          1           0        0.565560    0.847169    0.017915
      6          6           0       -1.344323    0.053955   -0.502352
      7          8           0       -2.387445    0.074443    0.109970
      8          6           0       -1.433055    0.022344   -2.054645
      9          6           0       -0.166335    0.008243   -2.956250
     10          6           0       -0.451591   -0.044165   -4.470571
     11          6           0        0.846690    0.071314   -5.266753
     12          1           0        1.472045   -0.804144   -5.048563
     13          1           0        1.391432    0.985256   -5.000287
     14          8           0        0.479737    0.103579   -6.649133
     15          1           0        1.292505    0.163226   -7.160840
     16          1           0       -2.017480    0.912580   -2.320554
     17          8           0       -2.208566   -1.145578   -2.329333
     18          1           0       -3.065237   -0.876616   -2.670379
     19          1           0        0.419229   -0.887100   -2.711870
     20          8           0        0.616024    1.193432   -2.744363
     21          1           0        1.488886    0.935951   -2.438912
     22          1           0       -1.081653    0.806075   -4.756969
     23          8           0       -1.038145   -1.299533   -4.829704
     24          1           0       -1.874913   -1.143482   -5.276510
 ---------------------------------------------------------------------
                    Distance matrix (angstroms):
                    1          2          3          4          5
     1  C    0.000000
     2  O    1.419337   0.000000
     3  H    1.938216   0.962711   0.000000
     4  H    1.100090   2.079782   2.319092   0.000000
     5  H    1.090191   2.073323   2.313064   1.792468   0.000000
     6  C    1.519264   2.392275   3.223234   2.134791   2.132491
     7  O    2.356657   2.582368   3.538391   3.050844   3.053820
     8  C    2.711237   3.876504   4.613739   2.946894   2.995046
     9  C    3.228809   4.618934   5.128634   3.139174   3.175708
    10  C    4.758442   6.131409   6.666968   4.620282   4.687811
    11  C    5.607714   7.025884   7.401918   5.340028   5.348710
    12  H    5.583371   6.985328   7.271508   5.110319   5.405344
    13  H    5.553269   6.955469   7.261805   5.401746   5.087581
    14  O    6.939539   8.349066   8.777319   6.695031   6.708935
    15  H    7.551265   8.970162   9.322806   7.254866   7.247809
    16  H    3.392053   4.431173   5.217001   3.862976   3.484940
    17  O    3.566767   4.544370   5.324489   3.543293   4.144441
    18  H    4.304968   5.189691   6.034731   4.421262   4.835394
    19  H    3.137438   4.512236   4.901401   2.676899   3.237410
    20  O    3.316294   4.672643   5.040949   3.451573   2.784353
    21  H    3.254664   4.589861   4.781770   3.210763   2.626102
    22  H    5.200757   6.517712   7.123838   5.272295   5.051189
    23  O    5.350699   6.646261   7.226244   5.042210   5.538917
    24  H    5.948664   7.190214   7.847591   5.750594   6.160320
                    6          7          8          9         10
     6  C    0.000000
     7  O    1.209736   0.000000
     8  C    1.555148   2.366248   0.000000
     9  C    2.722381   3.786742   1.554886   0.000000
    10  C    4.068582   4.974229   2.608523   1.541845   0.000000
    11  C    5.244078   6.274455   3.939197   2.523612   1.527342
    12  H    5.416298   6.502156   4.252791   2.778854   2.147560
    13  H    5.346316   6.420609   4.193058   2.749414   2.176475
    14  O    6.411908   7.342142   4.977418   3.750184   2.373885
    15  H    7.162420   8.149515   5.789797   4.453179   3.212854
    16  H    2.120432   2.597459   1.097624   2.156078   2.826649
    17  O    2.350246   2.733249   1.428606   2.427970   2.980767
    18  H    2.920247   3.015668   1.962466   3.044393   3.280977
    19  H    2.979542   4.094480   2.165639   1.097381   2.135859
    20  O    3.188728   4.291874   2.458838   1.435847   2.377234
    21  H    3.543340   4.718574   3.085463   1.966733   2.975520
    22  H    4.328561   5.091903   2.835538   2.171850   1.096316
    23  O    4.544408   5.301773   3.099075   2.445436   1.431423
    24  H    4.950552   5.546188   3.454679   3.103114   1.970757
                   11         12         13         14         15
    11  C    0.000000
    12  H    1.097771   0.000000
    13  H    1.096831   1.791865   0.000000
    14  O    1.430618   2.090564   2.080201   0.000000
    15  H    1.948016   2.330183   2.313765   0.962285   0.000000
    16  H    4.194197   4.750363   4.336696   5.062329   5.911506
    17  O    4.409518   4.588865   4.963309   5.239087   6.108512
    18  H    4.789874   5.123274   5.362549   5.418312   6.343140
    19  H    2.762011   2.564261   3.112515   4.060436   4.653937
    20  O    2.770344   3.167398   2.394532   4.056301   4.585217
    21  H    3.026003   3.136637   2.563702   4.408762   4.788765
    22  H    2.125619   3.033018   2.491477   2.551807   3.439255
    23  O    2.371252   2.567949   3.339492   2.753727   3.606354
    24  H    2.980427   3.371830   3.908560   2.997271   3.910335
                   16         17         18         19         20
    16  H    0.000000
    17  O    2.067028   0.000000
    18  H    2.102711   0.960488   0.000000
    19  H    3.054427   2.668043   3.484728   0.000000
    20  O    2.682133   3.690736   4.224009   2.090071   0.000000
    21  H    3.508441   4.244517   4.907037   2.131241   0.959940
    22  H    2.612132   3.312446   3.334653   3.049904   2.661341
    23  O    3.485452   2.765039   2.991763   2.603701   3.646888
    24  H    3.603526   2.966004   2.877501   3.450536   4.251789
                   21         22         23         24
    21  H    0.000000
    22  H    3.463803   0.000000
    23  O    4.135113   2.107313   0.000000
    24  H    4.867356   2.167939   0.961338   0.000000
 Stoichiometry    C6H12O6
 Framework group  C1[X(C6H12O6)]
 Deg. of freedom    66
 Full point group                 C1      NOp   1
 Largest Abelian subgroup         C1      NOp   1
 Largest concise Abelian subgroup C1      NOp   1
                         Standard orientation:                         
 ---------------------------------------------------------------------
 Center     Atomic      Atomic             Coordinates (Angstroms)
 Number     Number       Type             X           Y           Z
 ---------------------------------------------------------------------
      1          6           0        2.660002   -0.953958    0.416712
      2          8           0        4.078172   -0.908672    0.452206
      3          1           0        4.380494   -1.713472    0.885461
      4          1           0        2.247500   -0.988568    1.435949
      5          1           0        2.315538   -1.818263   -0.151477
      6          6           0        2.143040    0.304496   -0.259459
      7          8           0        2.937315    1.130055   -0.648096
      8          6           0        0.633361    0.646277   -0.409593
      9          6           0       -0.486296   -0.335383    0.038048
     10          6           0       -1.922794    0.184678   -0.170023
     11          6           0       -2.942524   -0.896353    0.182532
     12          1           0       -2.857751   -1.123992    1.253091
     13          1           0       -2.765946   -1.808588   -0.400294
     14          8           0       -4.232910   -0.359884   -0.123694
     15          1           0       -4.884546   -1.029223    0.107282
     16          1           0        0.494395    0.838805   -1.481227
     17          8           0        0.487030    1.872413    0.308802
     18          1           0        0.314136    2.580383   -0.316836
     19          1           0       -0.368782   -0.523336    1.112809
     20          8           0       -0.402659   -1.564784   -0.698995
     21          1           0       -0.267539   -2.286318   -0.080435
     22          1           0       -2.074147    0.438031   -1.225871
     23          8           0       -2.188367    1.292062    0.697239
     24          1           0       -2.470726    2.046478    0.172550
 ---------------------------------------------------------------------
 Rotational constants (GHZ):      1.9516106      0.4236992      0.3697905
 Standard basis: 6-311G(d,p) (5D, 7F)
 There are   288 symmetry adapted basis functions of A   symmetry.
 Integral buffers will be    131072 words long.
 Raffenetti 2 integral format.
 Two-electron integral symmetry is turned on.
   288 basis functions,   480 primitive gaussians,   300 cartesian basis functions
    48 alpha electrons       48 beta electrons
       nuclear repulsion energy       772.0530279306 Hartrees.
 NAtoms=   24 NActive=   24 NUniq=   24 SFac= 1.00D+00 NAtFMM=   50 NAOKFM=F Big=F
 One-electron integrals computed using PRISM.
 NBasis=   288 RedAO= T  NBF=   288
 NBsUse=   288 1.00D-06 NBFU=   288
 Initial guess read from the read-write file.
 B after Tr=     0.000000    0.000000    0.000000
         Rot=    1.000000    0.000000    0.000000    0.000000 Ang=   0.00 deg.
 Initial guess orbital symmetries:
       Occupied  (A) (A) (A) (A) (A) (A) (A) (A) (A) (A) (A) (A)
                 (A) (A) (A) (A) (A) (A) (A) (A) (A) (A) (A) (A)
                 (A) (A) (A) (A) (A) (A) (A) (A) (A) (A) (A) (A)
                 (A) (A) (A) (A) (A) (A) (A) (A) (A) (A) (A) (A)
       Virtual   (A) (A) (A) (A) (A) (A) (A) (A) (A) (A) (A) (A)
                 (A) (A) (A) (A) (A) (A) (A) (A) (A) (A) (A) (A)
                 (A) (A) (A) (A) (A) (A) (A) (A) (A) (A) (A) (A)
                 (A) (A) (A) (A) (A) (A) (A) (A) (A) (A) (A) (A)
                 (A) (A) (A) (A) (A) (A) (A) (A) (A) (A) (A) (A)
                 (A) (A) (A) (A) (A) (A) (A) (A) (A) (A) (A) (A)
                 (A) (A) (A) (A) (A) (A) (A) (A) (A) (A) (A) (A)
                 (A) (A) (A) (A) (A) (A) (A) (A) (A) (A) (A) (A)
                 (A) (A) (A) (A) (A) (A) (A) (A) (A) (A) (A) (A)
                 (A) (A) (A) (A) (A) (A) (A) (A) (A) (A) (A) (A)
                 (A) (A) (A) (A) (A) (A) (A) (A) (A) (A) (A) (A)
                 (A) (A) (A) (A) (A) (A) (A) (A) (A) (A) (A) (A)
                 (A) (A) (A) (A) (A) (A) (A) (A) (A) (A) (A) (A)
                 (A) (A) (A) (A) (A) (A) (A) (A) (A) (A) (A) (A)
                 (A) (A) (A) (A) (A) (A) (A) (A) (A) (A) (A) (A)
                 (A) (A) (A) (A) (A) (A) (A) (A) (A) (A) (A) (A)
                 (A) (A) (A) (A) (A) (A) (A) (A) (A) (A) (A) (A)
                 (A) (A) (A) (A) (A) (A) (A) (A) (A) (A) (A) (A)
                 (A) (A) (A) (A) (A) (A) (A) (A) (A) (A) (A) (A)
                 (A) (A) (A) (A) (A) (A) (A) (A) (A) (A) (A) (A)
 Harris functional with IExCor=  402 diagonalized for initial guess.
 ExpMin= 1.03D-01 ExpMax= 8.59D+03 ExpMxC= 1.30D+03 IAcc=1 IRadAn=         1 AccDes= 0.00D+00
 HarFok:  IExCor=  402 AccDes= 0.00D+00 IRadAn=         1 IDoV= 1
 ScaDFX=  1.000000  1.000000  1.000000  1.000000
 FoFCou: FMM=F IPFlag=           0 FMFlag=      100000 FMFlg1=           0
         NFxFlg=           0 DoJE=T BraDBF=F KetDBF=T FulRan=T
         Omega=  0.000000  0.000000  1.000000  0.000000  0.000000 ICntrl=     500 IOpCl=  0
         NMat0=    1 NMatS0=    1 NMatT0=    0 NMatD0=    1 NMtDS0=    0 NMtDT0=    0
         I1Cent=           4 NGrid=           0.
 Petite list used in FoFCou.
 Requested convergence on RMS density matrix=1.00D-08 within 128 cycles.
 Requested convergence on MAX density matrix=1.00D-06.
 Requested convergence on             energy=1.00D-06.
 No special actions if energy rises.
 Keep R1 ints in memory in canonical form, NReq=1033417308.
 Integral accuracy reduced to 1.0D-05 until final iterations.
 Initial convergence to 1.0D-05 achieved.  Increase integral accuracy.
 SCF Done:  E(RB3LYP) =  -687.323877765     A.U. after   15 cycles
             Convg  =    0.3749D-08             -V/T =  2.0031
 Calling FoFJK, ICntrl=      2127 FMM=F ISym2X=0 I1Cent= 0 IOpClX= 0 NMat=1 NMatS=1 NMatT=0.
 ***** Axes restored to original set *****
 -------------------------------------------------------------------
 Center     Atomic                   Forces (Hartrees/Bohr)
 Number     Number              X              Y              Z
 -------------------------------------------------------------------
      1        6          -0.000846825   -0.002741960    0.006576949
      2        8           0.000770625   -0.000136048   -0.003385947
      3        1          -0.000928659    0.000120166   -0.001154591
      4        1           0.001862901    0.001145517   -0.004073781
      5        1           0.004433831    0.002653463   -0.005765337
      6        6          -0.007725420   -0.000300870    0.012353234
      7        8           0.005404411    0.003175416   -0.008927723
      8        6          -0.005374371    0.000755859   -0.010357342
      9        6           0.001829297   -0.005615762    0.004284422
     10        6           0.000985219   -0.008945198   -0.003999058
     11        6           0.000529053    0.005469608   -0.006576850
     12        1           0.000011347   -0.001382309    0.000924491
     13        1          -0.001677180   -0.001912932    0.001515086
     14        8           0.001901250    0.000181370    0.001436279
     15        1          -0.001675818   -0.000186928    0.000150945
     16        1           0.003264846    0.002615892    0.001696362
     17        8           0.000871849   -0.000804745   -0.001577507
     18        1           0.001360809   -0.000779743    0.002721250
     19        1          -0.000974316   -0.000745124    0.000206276
     20        8          -0.002730012    0.002361327    0.011665921
     21        1          -0.000262254    0.000627650   -0.000043497
     22        1          -0.002334762   -0.000590420    0.000840792
     23        8          -0.002096646    0.005062587    0.000856203
     24        1           0.003400827   -0.000026814    0.000633424
 -------------------------------------------------------------------
 Cartesian Forces:  Max     0.012353234 RMS     0.003897086

 GradGradGradGradGradGradGradGradGradGradGradGradGradGradGradGradGradGrad
 Berny optimization.
 Using GEDIIS/GDIIS optimizer.
 Internal  Forces:  Max     0.018342419 RMS     0.004238834
 Search for a local minimum.
 Step number   2 out of a maximum of  125
 All quantities printed in internal units (Hartrees-Bohrs-Radians)
 Mixed Optimization -- RFO/linear search
 Update second derivatives using D2CorX and points    1    2
 DE= -1.01D-02 DEPred=-2.11D-02 R= 4.76D-01
 Trust test= 4.76D-01 RLast= 4.33D-01 DXMaxT set to 3.00D-01
 ITU=  0  0
 Use linear search instead of GDIIS.
     Eigenvalues ---    0.00236   0.00292   0.00383   0.00401   0.00490
     Eigenvalues ---    0.00559   0.01330   0.01374   0.01378   0.01396
     Eigenvalues ---    0.01513   0.03762   0.04032   0.04600   0.04790
     Eigenvalues ---    0.04904   0.05213   0.05498   0.05944   0.06534
     Eigenvalues ---    0.07003   0.07516   0.07675   0.09095   0.10805
     Eigenvalues ---    0.11133   0.13515   0.13859   0.15881   0.16000
     Eigenvalues ---    0.16000   0.16000   0.16007   0.16096   0.17065
     Eigenvalues ---    0.19132   0.19600   0.19747   0.21701   0.22091
     Eigenvalues ---    0.22374   0.24638   0.28240   0.28525   0.29360
     Eigenvalues ---    0.29520   0.30686   0.33938   0.34077   0.34170
     Eigenvalues ---    0.34204   0.34244   0.34421   0.34453   0.39049
     Eigenvalues ---    0.41500   0.41749   0.42066   0.42575   0.44930
     Eigenvalues ---    0.51984   0.52840   0.52881   0.52906   0.53060
     Eigenvalues ---    0.87249
 RFO step:  Lambda=-7.12033581D-03 EMin= 2.36051772D-03
 Quartic linear search produced a step of -0.24391.
 Iteration  1 RMS(Cart)=  0.14666567 RMS(Int)=  0.00548502
 Iteration  2 RMS(Cart)=  0.01298651 RMS(Int)=  0.00058294
 Iteration  3 RMS(Cart)=  0.00004768 RMS(Int)=  0.00058240
 Iteration  4 RMS(Cart)=  0.00000002 RMS(Int)=  0.00058240
 Variable       Old X    -DE/DX   Delta X   Delta X   Delta X     New X
                                 (Linear)    (Quad)   (Total)
    R1        2.68216  -0.00441  -0.00268  -0.00193  -0.00461   2.67754
    R2        2.07887   0.00106  -0.00328   0.00898   0.00570   2.08457
    R3        2.06016   0.00591   0.00093   0.01066   0.01160   2.07176
    R4        2.87099   0.00052  -0.00120   0.00368   0.00248   2.87347
    R5        1.81926  -0.00138   0.00451  -0.01136  -0.00686   1.81241
    R6        2.28607  -0.00912   0.01024  -0.02933  -0.01909   2.26698
    R7        2.93880  -0.00412  -0.01268   0.01550   0.00282   2.94162
    R8        2.93831  -0.00936  -0.00860  -0.00637  -0.01497   2.92334
    R9        2.07421  -0.00003  -0.00109   0.00217   0.00108   2.07529
   R10        2.69967  -0.00013  -0.00294   0.00586   0.00292   2.70260
   R11        2.91366   0.00439  -0.00079   0.01287   0.01209   2.92575
   R12        2.07375   0.00013   0.00014   0.00000   0.00014   2.07389
   R13        2.71336   0.00256  -0.00519   0.01526   0.01007   2.72342
   R14        2.88626   0.00072   0.00075   0.00028   0.00103   2.88729
   R15        2.07174   0.00066  -0.00028   0.00200   0.00172   2.07346
   R16        2.70500  -0.00532  -0.00188  -0.00560  -0.00748   2.69752
   R17        2.07449   0.00129  -0.00125   0.00533   0.00408   2.07857
   R18        2.07271  -0.00206  -0.00159  -0.00114  -0.00273   2.06998
   R19        2.70348  -0.00159  -0.00304   0.00348   0.00044   2.70392
   R20        1.81846  -0.00151   0.00464  -0.01182  -0.00718   1.81128
   R21        1.81506  -0.00240   0.00565  -0.01519  -0.00954   1.80552
   R22        1.81402  -0.00042   0.00553  -0.01216  -0.00663   1.80739
   R23        1.81666  -0.00326   0.00511  -0.01526  -0.01015   1.80651
    A1        1.93103   0.00239  -0.00880   0.03471   0.02598   1.95701
    A2        1.93268   0.00280  -0.00946   0.03815   0.02873   1.96141
    A3        1.90148   0.00079   0.00622  -0.00577   0.00045   1.90193
    A4        1.91714  -0.00245   0.00230  -0.02828  -0.02632   1.89081
    A5        1.88685  -0.00167   0.00575  -0.02114  -0.01556   1.87129
    A6        1.89360  -0.00203   0.00424  -0.02002  -0.01597   1.87763
    A7        1.87377  -0.00101   0.00059  -0.00568  -0.00509   1.86868
    A8        2.07698   0.01462   0.01000   0.02522   0.03283   2.10981
    A9        2.15956  -0.01775  -0.02842   0.00743  -0.02329   2.13627
   A10        2.04472   0.00320   0.01882  -0.02585  -0.00925   2.03547
   A11        2.13234  -0.01834  -0.02847  -0.02364  -0.05289   2.07944
   A12        1.82938   0.00315   0.00847  -0.02464  -0.01783   1.81155
   A13        1.81266   0.00698   0.01955  -0.01211   0.00832   1.82099
   A14        1.87617   0.00351   0.01285  -0.02082  -0.01024   1.86593
   A15        1.90005   0.00574  -0.00255   0.03015   0.02718   1.92723
   A16        1.90439  -0.00004  -0.00905   0.06215   0.05328   1.95767
   A17        2.00324   0.00159   0.00301   0.00346   0.00670   2.00993
   A18        1.88912   0.00308  -0.00731   0.02109   0.01373   1.90286
   A19        1.92927  -0.01308  -0.00026  -0.06328  -0.06285   1.86641
   A20        1.86472  -0.00194   0.00309   0.00901   0.01149   1.87621
   A21        1.84814   0.00966   0.01704   0.00688   0.02374   1.87188
   A22        1.92821   0.00109  -0.01731   0.02628   0.00879   1.93699
   A23        1.93066   0.00279   0.00523   0.00419   0.00952   1.94018
   A24        1.91404  -0.00153   0.00452  -0.01753  -0.01289   1.90115
   A25        1.93054  -0.00026  -0.00287   0.00657   0.00344   1.93398
   A26        1.86889  -0.00066   0.00376  -0.00854  -0.00459   1.86431
   A27        1.85859   0.00009  -0.01884   0.04022   0.02123   1.87982
   A28        1.95964  -0.00029   0.00744  -0.02356  -0.01615   1.94349
   A29        1.89686  -0.00077   0.01040  -0.02440  -0.01404   1.88282
   A30        1.93748  -0.00162   0.00369  -0.01622  -0.01256   1.92492
   A31        1.86229  -0.00022   0.00900  -0.01937  -0.01040   1.85189
   A32        1.91060   0.00053   0.00010   0.00278   0.00305   1.91365
   A33        1.93495   0.00069  -0.01338   0.02924   0.01599   1.95094
   A34        1.92128   0.00134  -0.01031   0.02702   0.01676   1.93804
   A35        1.87401   0.00139  -0.00145   0.00898   0.00753   1.88154
   A36        1.90024   0.00030  -0.00471   0.01032   0.00560   1.90584
   A37        1.89759   0.00097  -0.00325   0.01054   0.00729   1.90488
   A38        1.90807  -0.00086  -0.00604   0.00761   0.00157   1.90964
    D1        1.06766   0.00021  -0.00499   0.00842   0.00337   1.07103
    D2       -1.06227  -0.00022   0.00368  -0.00539  -0.00165  -1.06392
    D3        3.13965   0.00009   0.00047  -0.00028   0.00019   3.13984
    D4       -0.00649   0.00074  -0.00563   0.04196   0.03710   0.03061
    D5       -3.07950  -0.00068  -0.01603  -0.07811  -0.09489   3.10879
    D6        2.09297   0.00310  -0.00914   0.06801   0.05945   2.15241
    D7       -0.98005   0.00168  -0.01953  -0.05206  -0.07255  -1.05259
    D8       -2.11193  -0.00190  -0.00041   0.01110   0.01163  -2.10030
    D9        1.09824  -0.00332  -0.01081  -0.10897  -0.12036   0.97788
   D10       -0.07809  -0.00175   0.01270   0.01008   0.02201  -0.05608
   D11       -2.21198   0.00357   0.00814   0.07801   0.08467  -2.12731
   D12        2.07344  -0.00043   0.00588   0.02380   0.02944   2.10288
[...]
 .00001190,0.00000258,0.00005727,-0.00003060,0.00020928,-0.00003736,0.0
 0049319,0.00053760,-0.00066172,-0.00204637,-0.00512167,0.00395073,0.00
 142992,0.00042307,0.00050064,-0.09777262,-0.10044563,0.01755311,0.0057
 3363,0.01394226,-0.00172684,0.00031954,-0.00046744,-0.00028238,0.00053
 000,-0.00017442,0.00037616,-0.00009074,-0.00010548,0.00034538,-0.00027
 956,-0.00001461,-0.00008227,-0.00015191,0.00024400,0.00010091,0.000033
 11,-0.00002335,-0.00004064,0.12678873,-0.00102817,-0.00077486,0.000619
 53,0.00043269,0.00032555,-0.00023268,0.00002486,-0.00004870,0.00011354
 ,-0.00002235,0.00009223,-0.00005120,0.00037272,0.00084790,-0.00005903,
 -0.00272025,-0.00340302,-0.00023140,0.00043793,-0.00028058,0.00074438,
 -0.10129773,-0.22637921,0.03274011,-0.01160686,-0.02922037,0.00395316,
 -0.00065533,0.00048746,0.00130441,-0.00007569,-0.00063158,-0.00044253,
 0.00044893,0.00007623,-0.00009526,-0.00044932,0.00037028,0.00007157,0.
 00007728,0.00063411,0.00036027,0.00000542,0.00005025,-0.00015939,0.113
 02014,0.24460088,-0.00096401,-0.00223956,-0.00040458,0.00010112,-0.000
 35685,-0.00004166,-0.00006893,-0.00006002,0.00002526,0.00049025,-0.000
 01358,0.00002163,-0.00092311,0.00016680,-0.00122897,0.01636353,0.02892
 784,0.00062404,0.00273334,-0.00333155,-0.00586274,0.02149861,0.0378932
 6,-0.05616367,-0.00534820,-0.01597202,0.00409826,-0.00079810,-0.000182
 04,0.00100659,0.00013650,-0.00047716,-0.00088149,0.00033264,0.00009253
 ,-0.00031563,-0.00010730,0.00023633,-0.00066708,-0.00006226,0.00016301
 ,0.00030306,-0.00000634,0.00003975,-0.00004128,-0.01602497,-0.03232282
 ,0.05968675,0.00379741,0.00015193,0.00030659,-0.00071976,0.00034599,-0
 .00228453,0.00018830,-0.00003910,-0.00020673,0.00021584,-0.00000507,0.
 00058565,0.00065946,0.00053597,0.00023767,-0.02330103,0.00159210,-0.01
 253687,0.01014462,-0.00287365,0.01476084,-0.20213181,0.01042574,-0.075
 29123,-0.03330569,0.00231248,-0.01689722,-0.00041961,-0.00160028,-0.00
 101558,-0.00071553,-0.00016142,-0.00061653,0.00026236,0.00033959,0.000
 04294,-0.00047891,0.00031678,0.00005328,0.00008016,-0.00012215,0.00151
 170,-0.00012535,0.00010874,-0.00012876,-0.03211325,-0.00139035,-0.0169
 3122,0.50631338,-0.00045619,0.00067151,0.00006682,0.00013751,0.0004666
 8,0.00041413,0.00001325,-0.00002218,-0.00000219,-0.00030569,0.00005999
 ,-0.00011237,0.00061973,0.00017695,0.00022410,0.00525458,0.00007838,0.
 00549513,0.00187502,0.00211362,0.00216519,-0.00092806,-0.06608414,0.00
 970896,0.01985433,0.00477823,0.01211832,-0.00174612,0.00027311,-0.0019
 4727,0.00094832,-0.00116944,-0.00006648,0.00009089,0.00020546,-0.00007
 612,-0.00033629,0.00032278,-0.00006452,-0.00024886,0.00059873,0.000091
 08,0.00009963,-0.00003327,-0.00004518,-0.02006628,0.01240152,-0.011393
 42,0.03225976,0.06103354,0.00533377,0.00063711,-0.00287960,-0.00249384
 ,0.00044900,-0.00298222,0.00019280,-0.00015548,-0.00049672,-0.00011630
 ,0.00027275,-0.00035311,-0.00022896,-0.00038294,-0.00017350,-0.0350057
 5,0.00613060,-0.03693535,-0.01255475,0.00113246,-0.00842927,-0.0275322
 7,0.01160463,-0.11672955,0.00399958,0.00392518,0.00759415,-0.00173448,
 -0.00004902,-0.00263738,-0.00060667,0.00136876,0.00038744,0.00058343,-
 0.00015702,-0.00018041,0.00046926,-0.00092789,-0.00022594,0.00058335,-
 0.00043703,-0.00053076,-0.00014637,-0.00003729,0.00012302,-0.00152390,
 -0.00322603,0.00349690,-0.11648704,-0.07803847,0.42715967,-0.00167790,
 -0.00031833,0.00034943,0.00055326,-0.00006533,0.00093984,0.00003355,0.
 00002433,0.00010818,-0.00009045,-0.00003435,-0.00001931,-0.00010902,0.
 00006856,-0.00006134,-0.00300346,-0.00063637,-0.00043853,0.00016361,-0
 .00001169,0.00328594,-0.04231407,-0.00569937,0.02016802,-0.00313813,-0
 .00173090,-0.00129155,-0.00028124,0.00009833,0.00010667,-0.00026984,0.
 00021928,0.00020026,0.00012315,-0.00000536,-0.00002140,-0.00012006,-0.
 00036857,0.00022008,0.00021042,-0.00009061,-0.00047652,-0.00001946,-0.
 00002776,0.00006644,-0.00254501,0.00158370,-0.00074471,-0.22230189,-0.
 04328581,0.17880901,0.27461824,-0.00095066,0.00086439,0.00038376,0.000
 18783,-0.00017422,0.00001282,-0.00001907,0.00003343,0.00010466,-0.0001
 8611,-0.00004762,-0.00026238,-0.00004434,-0.00000282,-0.00002262,0.002
 82688,0.00413326,0.00097994,-0.00095152,-0.00627517,-0.00202632,0.0008
 0914,-0.00328669,-0.00429786,0.00327915,0.00068770,0.00142054,0.000052
 29,-0.00012095,0.00015803,-0.00020533,-0.00012034,0.00006361,-0.000013
 33,-0.00000009,0.00003535,0.00003896,0.00005700,-0.00012734,-0.0000037
 6,-0.00000738,0.00005610,-0.00001726,0.00002013,-0.00000353,-0.0036107
 4,-0.00051993,-0.00097587,-0.05215396,-0.01593110,0.06098920,0.0490194
 7,0.02270841,0.00349419,0.00066136,-0.00051653,-0.00036263,-0.00000107
 ,-0.00004803,0.00007856,0.00005610,-0.00034349,0.00031378,-0.00002162,
 0.00078700,0.00072752,0.00027184,0.00056414,-0.01820027,-0.00025251,-0
 .00069434,0.00849621,-0.00167201,0.00313176,-0.00738529,-0.00501597,0.
 01837448,-0.00100929,0.00012882,-0.00252056,0.00072427,-0.00043300,-0.
 00019832,-0.00002416,-0.00003540,-0.00010317,-0.00004452,-0.00004016,0
 .00003402,0.00006659,-0.00001765,-0.00009775,-0.00010479,0.00004276,0.
 00008067,0.00005480,-0.00000489,-0.00002734,-0.00393708,-0.00068227,-0
 .00291168,0.22073137,0.06204671,-0.26930176,-0.20151377,-0.05626819,0.
 25418434,-0.00003520,0.00014681,0.00010501,0.00015027,0.00001178,-0.00
 006235,-0.00002468,-0.00002658,0.00004101,-0.00028571,-0.00023423,0.00
 016201,-0.00008712,0.00012717,0.00003353,0.00112687,0.00028287,-0.0007
 0927,-0.00005629,-0.00023238,-0.00022405,0.00693778,0.01554426,-0.0034
 5495,-0.07299366,-0.06725780,0.02879719,0.00238610,0.00020969,-0.00029
 469,0.00073247,0.00010436,-0.00055301,0.00008912,0.00033728,-0.0002587
 6,0.00005864,-0.00004873,0.00013356,0.00008878,0.00006124,-0.00001659,
 -0.00007152,-0.00000495,-0.00008931,-0.00189859,0.00306592,0.00141549,
 0.00137641,-0.00213255,0.00031748,0.00003394,0.00010029,-0.00001020,0.
 09397519,0.00007032,-0.00043555,-0.00038632,-0.00001071,0.00016988,-0.
 00017364,0.00000014,-0.00006977,-0.00003244,-0.00022032,0.00000233,-0.
 00003688,0.00003088,0.00027627,0.00002810,-0.00211318,-0.00122616,0.00
 259560,0.00161630,0.00078770,-0.00089736,-0.00839115,-0.02278796,0.004
 16478,-0.06949684,-0.23687646,0.07061857,-0.00058162,-0.00256731,0.000
 98103,0.00075843,0.00077345,-0.00043179,0.00008721,0.00018052,-0.00019
 481,-0.00005270,-0.00000109,-0.00002243,-0.00007048,0.00003977,0.00012
 202,-0.00002007,0.00013880,-0.00006018,0.00210547,-0.00263354,-0.00212
 580,0.00182886,0.00283315,-0.00006575,0.00027541,-0.00083430,0.0001208
 0,0.08172912,0.25499280,0.00024439,0.00016155,0.00005108,-0.00004203,0
 .00007305,0.00004936,-0.00001011,-0.00001476,-0.00002520,-0.00022917,-
 0.00000910,-0.00005766,0.00004142,0.00010477,0.00017607,-0.00085029,-0
 .00150064,0.00084549,-0.00002508,0.00019554,0.00010852,-0.00374526,-0.
 01391263,0.00370084,0.02831849,0.06855784,-0.07741659,0.01065921,0.034
 04403,-0.01694121,-0.00087192,-0.00463376,-0.00392238,0.00024927,-0.00
 004381,0.00020060,-0.00015317,0.00010587,0.00005017,0.00117820,0.00188
 215,-0.00206698,-0.00002085,-0.00011214,-0.00068845,0.00104929,-0.0028
 3498,-0.00074752,-0.00002406,0.00083513,-0.00009418,0.00003469,0.00001
 570,0.00028279,-0.02665743,-0.07137836,0.08586364,0.00013039,0.0000097
 5,0.00207169,0.00028557,0.00007215,0.00091166,-0.00018023,0.00010868,0
 .00009783,-0.00141979,0.00023829,0.00116917,-0.00008933,0.00011393,0.0
 0030463,0.00000650,-0.00072214,-0.00413058,0.00014737,0.00006591,0.001
 82917,-0.03288920,-0.00189588,-0.00947415,-0.19309766,-0.02740562,-0.0
 5170872,-0.02687344,0.00114560,-0.01482939,-0.00201806,-0.00359106,0.0
 0072014,0.00124259,0.00170452,-0.00030932,0.00039437,-0.00031437,0.000
 29315,0.00193498,0.00064350,-0.00070675,-0.00009116,0.00016623,-0.0004
 2678,0.00202182,-0.00071255,-0.00097171,-0.00557156,0.00468541,0.00385
 415,-0.00016048,0.00107383,-0.00168710,-0.03297047,-0.00738686,-0.0081
 9082,0.43548194,0.00048235,-0.00040489,-0.00143744,0.00033935,0.000355
 19,-0.00043585,0.00003428,-0.00022979,0.00002204,0.00002432,-0.0007041
 9,-0.00048388,-0.00018512,0.00081582,0.00004942,-0.00065567,0.00086428
 ,0.00131888,0.00054924,-0.00012144,-0.00093758,0.02448423,0.00594168,0
 .00931720,-0.00146310,-0.08573014,-0.01502334,0.00112698,0.00028894,-0
 .00291434,-0.00067915,-0.00174659,-0.00132109,0.00160100,0.00101444,0.
 00021785,0.00038386,0.00032713,0.00010464,0.00057276,0.00122111,0.0012
 3982,-0.00011997,0.00017736,-0.00033831,-0.00032988,0.00331841,0.00160
 263,0.00767831,-0.00315586,-0.00264298,0.00082128,-0.00120237,0.001042
 10,-0.03044526,0.00548290,-0.01140320,-0.12519683,0.26354053,-0.000283
 86,0.00175532,-0.00192304,0.00180254,-0.00124026,-0.00247611,0.0001015
 0,0.00021836,0.00064169,0.00219619,-0.00202587,-0.00226384,-0.00009830
 ,-0.00004855,0.00000766,-0.00325934,0.00109277,-0.00210261,0.00135989,
 -0.00027599,0.00106132,0.01110664,0.00453943,0.00768126,-0.01324232,-0
 .02337274,-0.09269711,-0.04210365,-0.00743618,-0.01737625,0.00010192,0
 .00024910,0.00293972,-0.00095517,-0.00051532,-0.00107919,-0.00075010,0
 .00021919,-0.00069063,-0.00016892,0.00007196,-0.00167783,0.00017633,-0
 .00003126,0.00045352,0.00000788,0.00067262,0.00017998,0.00467331,-0.00
 315088,0.00092735,0.00042167,-0.00024954,-0.00015515,0.00220424,-0.003
 00268,0.00654922,-0.07209733,0.21594622,0.30802994,-0.00018789,0.00001
 083,0.00018860,0.00028395,-0.00005682,-0.00053477,0.00005160,0.0000027
 7,0.00010291,-0.00004494,-0.00017282,0.00058782,0.00002407,0.00012672,
 0.00003187,-0.00030896,-0.00005399,0.00010202,0.00028439,-0.00000222,-
 0.00006402,-0.00489760,-0.00351013,-0.00303082,-0.03434799,0.02844469,
 0.02217339,-0.00141915,0.00241588,-0.00026456,0.00043945,0.00070542,-0
 .00033298,0.00003427,0.00010976,-0.00023590,-0.00002465,-0.00022899,0.
 00010059,-0.00027968,-0.00036992,0.00054456,0.00013440,-0.00008743,-0.
 00002351,0.00025366,-0.00002123,-0.00026430,-0.00150676,0.00121624,0.0
 0062078,-0.00020982,0.00043424,-0.00025554,0.00035549,-0.00021296,0.00
 060153,-0.15338588,0.12401552,0.11480207,0.19456901,-0.00017909,-0.000
 06480,0.00013454,-0.00012649,0.00006740,0.00030669,-0.00000636,0.00005
 597,-0.00002867,-0.00000735,0.00009582,-0.00043127,0.00006155,0.000005
 68,-0.00002525,0.00024446,-0.00019693,-0.00038125,-0.00024483,0.000009
 95,0.00015256,0.00070580,-0.00051689,0.00025406,-0.00064735,0.00263783
 ,0.00312789,-0.00074965,0.00242902,-0.00055288,0.00087630,-0.00002358,
 0.00119803,-0.00028950,-0.00105556,0.00032825,-0.00037653,-0.00019816,
 -0.00015584,-0.00013251,-0.00038023,-0.00084829,0.00015303,-0.00010189
 ,0.00008190,0.00004290,0.00039749,0.00006048,-0.00016140,0.00054598,-0
 .00060291,0.00019664,-0.00005421,0.00006575,-0.00189730,-0.00013001,0.
 00026261,0.15507526,-0.19287433,-0.18111575,-0.15258664,0.19304691,0.0
 0007705,0.00023316,-0.00071629,0.00012239,-0.00004796,0.00001409,0.000
 04430,-0.00008689,-0.00004325,0.00030931,-0.00048827,-0.00020141,-0.00
 009422,0.00010858,0.00008997,0.00009728,-0.00010011,-0.00009102,-0.000
 12598,0.00004623,-0.00005844,-0.00236288,-0.00025551,-0.00173849,-0.00
 580024,0.00784153,0.01043864,-0.00746698,0.00421983,0.00097003,0.00003
 720,-0.00013163,-0.00066078,-0.00004833,0.00050205,0.00015248,0.000190
 17,-0.00048051,0.00038520,0.00042778,-0.00052978,0.00012890,0.00003004
 ,-0.00000052,-0.00024914,0.00009647,-0.00011514,-0.00002694,-0.0019871
 8,0.00067198,0.00001039,-0.00022488,0.00011928,-0.00009126,-0.00090732
 ,-0.00064026,-0.00022743,0.15062161,-0.18850121,-0.19391354,-0.1384794
 4,0.17815846,0.18589467,-0.00002397,0.00003471,0.00006966,0.00003036,0
 .00000013,-0.00003663,-0.00000258,0.00000389,0.00001243,-0.00000709,-0
 .00001888,0.00002779,0.00000930,0.00001071,0.00000784,-0.00011764,-0.0
 0028299,0.00028729,0.00030494,0.00008160,-0.00002717,-0.00092740,-0.00
 009723,-0.00129284,-0.00076021,-0.00212929,-0.00190846,-0.25761541,-0.
 07011850,-0.07143141,-0.00704414,-0.00486408,-0.00386323,0.00091150,-0
 .00079601,0.00036537,0.00062708,-0.00040937,0.00051756,0.00069507,0.00
 054947,0.00021376,0.00028692,0.00015695,0.00008676,-0.00002837,0.00009
 525,0.00000057,-0.00081619,0.00162484,0.00215790,0.00005256,0.00023637
 ,0.00006316,0.00067410,0.00027609,-0.00027322,0.00172948,0.00058710,0.
 00049002,-0.00005729,0.00029213,0.00120649,0.28833778,-0.00004788,-0.0
 0002420,0.00001601,0.00003892,-0.00001022,0.00003552,-0.00000144,-0.00
 000069,0.00000780,0.00000418,-0.00001113,0.00001428,0.00000285,0.00001
 236,0.00001473,0.00010130,0.00013522,-0.00001938,0.00013828,-0.0000557
 4,0.00012702,-0.00116851,-0.00020003,-0.00018634,-0.00081712,0.0000828
 5,0.00301020,-0.06910607,-0.06955452,-0.02142415,-0.02898227,-0.011885
 04,-0.00992210,-0.00180022,-0.00458927,0.00336218,0.00013250,0.0006717
 6,-0.00048837,0.00166329,0.00208958,-0.00015502,0.00031693,0.00021187,
 -0.00034516,0.00013160,0.00008367,-0.00001469,0.00042906,-0.00017077,0
 .00035455,0.00026670,0.00013304,-0.00006723,0.00063026,0.00048589,0.00
 003093,-0.00009412,0.00141597,-0.00042253,0.00016016,-0.00074290,-0.00
 078123,0.06434589,0.08168760,-0.00004995,0.00007814,0.00017208,0.00011
 998,-0.00004245,-0.00009319,-0.00000493,0.00001172,0.00004104,-0.00008
 174,-0.00007547,0.00021241,-0.00000479,0.00003717,0.00002124,-0.000282
 61,-0.00015174,-0.00000673,0.00051410,0.00011084,0.00014462,-0.0020818
 2,0.00010018,-0.00070139,-0.02901646,-0.01007049,-0.00671630,-0.070972
 12,-0.01953596,-0.07761511,0.01317367,0.00689333,0.00460353,0.00098437
 ,0.00237336,-0.00120167,-0.00029632,-0.00065834,0.00046949,-0.00063483
 ,-0.00103838,0.00151474,-0.00031994,-0.00008897,0.00025438,0.00017800,
 0.00010369,-0.00000914,0.00116138,0.00054126,0.00093589,0.00031708,-0.
 00007980,-0.00031160,0.00006502,0.00080532,0.00115680,-0.00273605,0.00
 010729,-0.00832310,0.00084708,-0.00060646,0.00004112,0.07408547,0.0215
 9431,0.07917818,0.00007442,-0.00004648,-0.00010531,0.00018652,-0.00010
 314,0.00030550,-0.00003015,0.00002951,0.00000860,-0.00000443,-0.000097
 68,0.00019021,-0.00004030,0.00006073,0.00006909,-0.00058422,0.00081820
 ,-0.00144152,-0.00000802,-0.00031512,0.00100546,0.00006916,-0.00102842
 ,0.00085378,-0.01033192,0.01060971,0.00724448,-0.13082810,0.06802532,0
 .00892722,-0.00160615,0.00944238,0.00180986,0.00257913,0.00154975,-0.0
 0079616,0.00179206,-0.00073246,0.00028012,0.00354161,-0.00228453,0.000
 54919,-0.00003368,-0.00025303,0.00035618,0.00007432,0.00038593,0.00014
 624,0.00032526,0.00095656,0.00163452,0.00046184,0.00008319,-0.00027375
 ,0.00040359,-0.00015163,-0.00096789,0.00468841,-0.00167832,-0.00432898
 ,-0.00148828,-0.00177179,0.00258457,-0.02519117,0.03344354,0.01420790,
 0.19802350,-0.00009466,-0.00006594,0.00020447,-0.00000662,0.00013771,-
 0.00047775,0.00001538,-0.00006700,0.00004352,0.00002765,-0.00004457,-0
 .00003506,0.00002807,0.00004486,-0.00002254,-0.00004537,-0.00034501,0.
 00126822,0.00039118,0.00020735,-0.00083974,-0.00015550,0.00129512,-0.0
 0011406,0.00484071,-0.00680715,-0.01102864,0.05337348,-0.13216032,0.00
 941382,0.03480430,-0.04228386,-0.01043239,0.00014354,0.00316020,-0.000
 97364,-0.00275550,-0.00711812,0.00551482,0.00108215,-0.00003600,0.0012
 6072,0.00110574,0.00042079,-0.00155718,-0.00004387,0.00030380,0.000361
 77,0.00032816,0.00010406,-0.00042446,-0.00032677,-0.00006224,0.0001294
 0,-0.00025360,0.00132519,-0.00066976,0.00178254,0.00196406,-0.00184935
 ,-0.00038229,-0.00312606,-0.00018861,0.01015267,0.00024401,-0.00084997
 ,-0.10988862,0.22911775,-0.00036074,0.00055633,0.00054569,0.00011891,-
 0.00000936,-0.00098855,0.00003297,0.00000854,0.00015029,0.00004781,-0.
 00016290,-0.00001437,0.00005190,0.00003716,-0.00002245,-0.00006082,-0.
 00294815,0.00327897,0.00173847,0.00098316,-0.00164946,-0.00302720,0.00
 168463,-0.00913889,0.02657286,-0.03587986,-0.02499755,0.03300142,-0.02
 927663,-0.09543293,-0.00437519,0.00380445,-0.00085842,0.00013386,0.000
 06456,0.00032007,0.00080507,0.00221780,0.00025353,-0.00180659,0.008527
 48,-0.00094059,-0.00188416,0.00168313,0.00122185,-0.00006496,-0.000243
 67,-0.00012995,0.00055554,0.00027717,0.00109692,-0.00031300,-0.0000315
 8,-0.00008814,0.00004427,-0.00008148,0.00305533,0.00485588,-0.00559826
 ,-0.00478588,0.00253801,0.00048296,0.00099391,0.00053399,0.00435460,0.
 00578737,-0.13635323,-0.06144239,0.58200479,-0.00004414,0.00004404,0.0
 0003915,0.00003390,-0.00002925,-0.00008446,0.00000793,0.00000711,0.000
 02043,0.00002321,-0.00003003,0.00004531,-0.00000097,-0.00000367,0.0000
 0935,-0.00007959,0.00022001,-0.00012168,-0.00008395,-0.00006523,0.0000
 5040,0.00024760,0.00006157,0.00097893,-0.00395871,0.00289419,-0.000713
 82,-0.00916562,-0.00041038,0.03086515,0.00211199,0.00090337,0.00099067
 ,-0.00016403,-0.00040369,-0.00042496,-0.00026608,-0.00016829,0.0000726
 6,-0.00341891,0.00003575,0.00066486,0.00069542,-0.00161813,-0.00069817
 ,-0.00001954,0.00002907,-0.00000315,0.00014414,-0.00013022,-0.00012570
 ,-0.00000974,0.00001443,0.00005792,0.00003451,-0.00006972,-0.00031519,
 0.00068385,-0.00194728,-0.00215621,0.00172859,0.00152872,0.00165280,-0
 .00106764,0.00021218,0.00082753,-0.04207341,0.00587723,0.07721494,0.05
 464119,-0.00003916,0.00015876,-0.00000837,-0.00001477,-0.00003598,0.00
 000894,0.00000367,0.00002147,-0.00000504,-0.00000718,-0.00000971,-0.00
 006331,-0.00000084,-0.00002740,-0.00000467,0.00016980,-0.00069049,0.00
 027600,0.00019622,0.00019466,-0.00012381,-0.00025630,0.00060402,-0.002
 05680,0.00373492,-0.00537258,-0.00215813,0.00955544,0.00307391,-0.0322
 6203,0.00286188,-0.00334670,-0.00656473,-0.00014119,-0.00033306,0.0005
 3138,-0.00029968,0.00098004,0.00058283,-0.00088610,0.00120144,-0.00029
 566,-0.00157073,0.00109571,0.00123274,-0.00010988,-0.00009799,-0.00007
 902,-0.00014610,-0.00009694,0.00028302,0.00002750,0.00000206,-0.000053
 66,0.00018232,0.00007348,0.00024399,0.00043383,-0.00055822,-0.00002807
 ,0.00004322,0.00017351,0.00044656,0.00026852,-0.00000931,0.00044142,-0
 .00705361,-0.04620865,0.11099231,-0.00695177,0.04920796,0.00001536,-0.
 00001178,-0.00010126,-0.00002490,0.00001318,0.00015627,-0.00000054,-0.
 00000736,-0.00003135,0.00000257,0.00001224,-0.00007162,-0.00000157,-0.
 00001341,0.00000477,0.00016851,-0.00002377,-0.00018859,-0.00011300,-0.
 00002237,0.00010312,-0.00028812,0.00020702,-0.00032112,0.00170932,-0.0
 0174818,-0.00088063,0.00526722,-0.00270758,-0.01277998,-0.00128291,0.0
 0193552,0.00350725,-0.00004352,-0.00056486,-0.00066949,0.00014853,0.00
 040607,-0.00171510,-0.00066809,0.00019837,-0.00185474,0.00056478,-0.00
 050784,-0.00066579,0.00002452,0.00001311,-0.00001015,-0.00021331,0.000
 24090,0.00021803,0.00007772,0.00000602,-0.00003011,-0.00008087,0.00009
 396,0.00009770,0.00053960,0.00006938,0.00099263,0.00024460,0.00013440,
 -0.00110141,-0.00129306,0.00090406,0.00044534,0.10409392,0.07270880,-0
 .45966153,-0.10884675,-0.07133589,0.47455777\\-0.00000918,0.00001473,0
 .00000180,0.00000520,0.00000079,-0.00000031,0.00000247,0.00000156,0.00
 000199,0.00000582,-0.00000261,-0.00000333,-0.00000089,-0.00000373,0.00
 000188,0.00000951,-0.00000297,-0.00000211,-0.00000201,-0.00000331,0.00
 000262,-0.00001175,0.00000048,-0.00000252,-0.00000027,-0.00000280,-0.0
 0000754,0.00000019,-0.00000249,0.00000961,-0.00000383,0.00000329,0.000
 00115,-0.00000237,0.00000175,-0.00000267,-0.00000278,-0.00000411,-0.00
 000149,-0.00000157,0.00000285,-0.00000565,-0.00000287,0.00000065,-0.00
 000239,0.00000064,-0.00000213,-0.00000031,0.00000221,-0.00000276,0.000
 00390,0.00000033,-0.00000452,0.00000068,0.00000624,-0.00000234,0.00000
 141,0.00000091,0.00000273,0.00000062,0.00000151,0.00000340,-0.00000248
 ,-0.00000148,-0.00000078,0.00000115,0.00000274,-0.00000056,0.00000582,
 0.00000124,0.00000289,-0.00000185\\\@


      SCIENCE SANS CONSCIENCE N'EST QUE RUINE DE L'AME.

                                                  -- RABELAIS
 Job cpu time:  0 days  0 hours 26 minutes  3.2 seconds.
 File lengths (MBytes):  RWF=    219 Int=      0 D2E=      0 Chk=      7 Scr=      1
 Normal termination of Gaussian 09 at Mon Jan 22 21:09:30 2018.
