 Entering Gaussian System, Link 0=g09
 Input=S-R-R-Fructuose.inp
 Output=S-R-R-Fructuose.log
 Initial command:
 /usr/local/g09/l1.exe /home/g09scr/Gau-14460.inp -scrdir=/home/g09scr/
 Entering Link 1 = /usr/local/g09/l1.exe PID=     14462.
  
 Copyright (c) 1988,1990,1992,1993,1995,1998,2003,2009,2010,
            Gaussian, Inc.  All Rights Reserved.
  
 This is part of the Gaussian(R) 09 program.  It is based on
 the Gaussian(R) 03 system (copyright 2003, Gaussian, Inc.),
 the Gaussian(R) 98 system (copyright 1998, Gaussian, Inc.),
 the Gaussian(R) 94 system (copyright 1995, Gaussian, Inc.),
 the Gaussian 92(TM) system (copyright 1992, Gaussian, Inc.),
 the Gaussian 90(TM) system (copyright 1990, Gaussian, Inc.),
 the Gaussian 88(TM) system (copyright 1988, Gaussian, Inc.),
 the Gaussian 86(TM) system (copyright 1986, Carnegie Mellon
 University), and the Gaussian 82(TM) system (copyright 1983,
 Carnegie Mellon University). Gaussian is a federally registered
 trademark of Gaussian, Inc.
  
 This software contains proprietary and confidential information,
 including trade secrets, belonging to Gaussian, Inc.
  
 This software is provided under written license and may be
 used, copied, transmitted, or stored only in accord with that
 written license.
  
 The following legend is applicable only to US Government
 contracts under FAR:
  
                    RESTRICTED RIGHTS LEGEND
  
 Use, reproduction and disclosure by the US Government is
 subject to restrictions as set forth in subparagraphs (a)
 and (c) of the Commercial Computer Software - Restricted
 Rights clause in FAR 52.227-19.
  
 Gaussian, Inc.
 340 Quinnipiac St., Bldg. 40, Wallingford CT 06492
  
  
 ---------------------------------------------------------------
 Warning -- This program may not be used in any manner that
 competes with the business of Gaussian, Inc. or will provide
 assistance to any competitor of Gaussian, Inc.  The licensee
 of this program is prohibited from giving any competitor of
 Gaussian, Inc. access to this program.  By using this program,
 the user acknowledges that Gaussian, Inc. is engaged in the
 business of creating and licensing software in the field of
 computational chemistry and represents and warrants to the
 licensee that it is not a competitor of Gaussian, Inc. and that
 it will not use this program in any manner prohibited above.
 ---------------------------------------------------------------
  

 Cite this work as:
 Gaussian 09, Revision B.01,
 M. J. Frisch, G. W. Trucks, H. B. Schlegel, G. E. Scuseria, 
 M. A. Robb, J. R. Cheeseman, G. Scalmani, V. Barone, B. Mennucci, 
 G. A. Petersson, H. Nakatsuji, M. Caricato, X. Li, H. P. Hratchian, 
 A. F. Izmaylov, J. Bloino, G. Zheng, J. L. Sonnenberg, M. Hada, 
 M. Ehara, K. Toyota, R. Fukuda, J. Hasegawa, M. Ishida, T. Nakajima, 
 Y. Honda, O. Kitao, H. Nakai, T. Vreven, J. A. Montgomery, Jr., 
 J. E. Peralta, F. Ogliaro, M. Bearpark, J. J. Heyd, E. Brothers, 
 K. N. Kudin, V. N. Staroverov, T. Keith, R. Kobayashi, J. Normand, 
 K. Raghavachari, A. Rendell, J. C. Burant, S. S. Iyengar, J. Tomasi, 
 M. Cossi, N. Rega, J. M. Millam, M. Klene, J. E. Knox, J. B. Cross, 
 V. Bakken, C. Adamo, J. Jaramillo, R. Gomperts, R. E. Stratmann, 
 O. Yazyev, A. J. Austin, R. Cammi, C. Pomelli, J. W. Ochterski, 
 R. L. Martin, K. Morokuma, V. G. Zakrzewski, G. A. Voth, 
 P. Salvador, J. J. Dannenberg, S. Dapprich, A. D. Daniels, 
 O. Farkas, J. B. Foresman, J. V. Ortiz, J. Cioslowski, 
 and D. J. Fox, Gaussian, Inc., Wallingford CT, 2010.
 
 ******************************************
 Gaussian 09:  EM64L-G09RevB.01 12-Aug-2010
                22-Jan-2018 
 ******************************************
 %nproc=4
 Will use up to    4 processors via shared memory.
 %mem=60gb
 ------------------------------
 #B3LYP/6-311G** fopt test freq
 ------------------------------
 1/14=-1,18=20,19=15,26=3,38=1/1,3;
 2/9=110,12=2,14=103,17=6,18=5,40=1/2;
 3/5=4,6=6,7=101,11=2,16=1,25=1,30=1,71=1,74=-5/1,2,3;
 4//1;
 5/5=2,38=5/2;
 6/7=2,8=2,9=2,10=2,28=1/1;
 7//1,2,3,16;
 1/14=-1,18=20,19=15/3(2);
 2/9=110/2;
 99//99;
 2/9=110/2;
 3/5=4,6=6,7=101,11=2,16=1,25=1,30=1,71=1,74=-5/1,2,3;
 4/5=5,16=3/1;
 5/5=2,38=5/2;
 7//1,2,3,16;
 1/14=-1,18=20,19=15/3(-5);
 2/9=110/2;
 6/7=2,8=2,9=2,10=2,19=2,28=1/1;
 99/9=1/99;
 --------------------------
 Sugars/S-R-R-Fructuose.xyz
 --------------------------
 Symbolic Z-matrix:
 Charge =  0 Multiplicity = 1
 C                     0.        0.        0. 
 O                     0.        0.        1.41352 
 H                     0.92749   0.        1.70592 
 H                     0.51803  -0.89725  -0.34815 
 H                     0.51786   0.89695  -0.34677 
 C                    -1.42147   0.       -0.52884 
 O                    -2.38889  -0.0311    0.23329 
 C                    -1.59838   0.00492  -2.04619 
 C                    -0.29803   0.04539  -2.86317 
 C                    -0.4755    0.02154  -4.39287 
 C                     0.86828   0.04202  -5.12195 
 H                     1.4567   -0.85196  -4.89019 
 H                     1.45026   0.93508  -4.87855 
 O                     0.62907   0.0516   -6.5257 
 H                     1.49772   0.05882  -6.96259 
 H                    -2.18688  -0.88181  -2.30501 
 O                    -2.38065   1.13973  -2.3969 
 H                    -3.22003   0.81821  -2.76877 
 H                     0.27509  -0.84763  -2.58217 
 O                     0.49379   1.16746  -2.48447 
 H                     1.31496   0.83388  -2.08567 
 H                    -1.05584   0.88784  -4.72949 
 O                    -1.01692  -1.23465  -4.80051 
 H                    -1.82339  -1.05983  -5.31495 
 

 GradGradGradGradGradGradGradGradGradGradGradGradGradGradGradGradGradGrad
 Berny optimization.
 Initialization pass.
                           ----------------------------
                           !    Initial Parameters    !
                           ! (Angstroms and Degrees)  !
 --------------------------                            --------------------------
 ! Name  Definition              Value          Derivative Info.                !
 --------------------------------------------------------------------------------
 ! R1    R(1,2)                  1.4135         estimate D2E/DX2                !
 ! R2    R(1,4)                  1.093          estimate D2E/DX2                !
 ! R3    R(1,5)                  1.0922         estimate D2E/DX2                !
 ! R4    R(1,6)                  1.5167         estimate D2E/DX2                !
 ! R5    R(2,3)                  0.9725         estimate D2E/DX2                !
 ! R6    R(6,7)                  1.232          estimate D2E/DX2                !
 ! R7    R(6,8)                  1.5276         estimate D2E/DX2                !
 ! R8    R(8,9)                  1.5362         estimate D2E/DX2                !
 ! R9    R(8,16)                 1.0953         estimate D2E/DX2                !
 ! R10   R(8,17)                 1.4222         estimate D2E/DX2                !
 ! R11   R(9,10)                 1.5401         estimate D2E/DX2                !
 ! R12   R(9,19)                 1.0977         estimate D2E/DX2                !
 ! R13   R(9,20)                 1.4246         estimate D2E/DX2                !
 ! R14   R(10,11)                1.529          estimate D2E/DX2                !
 ! R15   R(10,22)                1.0957         estimate D2E/DX2                !
 ! R16   R(10,23)                1.4273         estimate D2E/DX2                !
 ! R17   R(11,12)                1.0951         estimate D2E/DX2                !
 ! R18   R(11,13)                1.0934         estimate D2E/DX2                !
 ! R19   R(11,14)                1.424          estimate D2E/DX2                !
 ! R20   R(14,15)                0.9724         estimate D2E/DX2                !
 ! R21   R(17,18)                0.9727         estimate D2E/DX2                !
 ! R22   R(20,21)                0.9719         estimate D2E/DX2                !
 ! R23   R(23,24)                0.9724         estimate D2E/DX2                !
 ! A1    A(2,1,4)              108.574          estimate D2E/DX2                !
 ! A2    A(2,1,5)              108.511          estimate D2E/DX2                !
 ! A3    A(2,1,6)              110.407          estimate D2E/DX2                !
 ! A4    A(4,1,5)              110.3838         estimate D2E/DX2                !
 ! A5    A(4,1,6)              109.4597         estimate D2E/DX2                !
 ! A6    A(5,1,6)              109.4917         estimate D2E/DX2                !
 ! A7    A(1,2,3)              107.498          estimate D2E/DX2                !
 ! A8    A(1,6,7)              121.351          estimate D2E/DX2                !
 ! A9    A(1,6,8)              117.057          estimate D2E/DX2                !
 ! A10   A(7,6,8)              121.5748         estimate D2E/DX2                !
 ! A11   A(6,8,9)              115.486          estimate D2E/DX2                !
 ! A12   A(6,8,16)             107.118          estimate D2E/DX2                !
 ! A13   A(6,8,17)             108.1312         estimate D2E/DX2                !
 ! A14   A(9,8,16)             110.516          estimate D2E/DX2                !
 ! A15   A(9,8,17)             108.265          estimate D2E/DX2                !
 ! A16   A(16,8,17)            106.9882         estimate D2E/DX2                !
 ! A17   A(8,9,10)             115.484          estimate D2E/DX2                !
 ! A18   A(8,9,19)             106.5213         estimate D2E/DX2                !
 ! A19   A(8,9,20)             110.4787         estimate D2E/DX2                !
 ! A20   A(10,9,19)            107.567          estimate D2E/DX2                !
 ! A21   A(10,9,20)            109.894          estimate D2E/DX2                !
 ! A22   A(19,9,20)            106.4113         estimate D2E/DX2                !
 ! A23   A(9,10,11)            111.847          estimate D2E/DX2                !
 ! A24   A(9,10,22)            110.727          estimate D2E/DX2                !
 ! A25   A(9,10,23)            109.938          estimate D2E/DX2                !
 ! A26   A(11,10,22)           107.9636         estimate D2E/DX2                !
 ! A27   A(11,10,23)           102.0626         estimate D2E/DX2                !
 ! A28   A(22,10,23)           114.0276         estimate D2E/DX2                !
 ! A29   A(10,11,12)           111.125          estimate D2E/DX2                !
 ! A30   A(10,11,13)           111.8759         estimate D2E/DX2                !
 ! A31   A(10,11,14)           108.815          estimate D2E/DX2                !
 ! A32   A(12,11,13)           109.4922         estimate D2E/DX2                !
 ! A33   A(12,11,14)           107.7211         estimate D2E/DX2                !
 ! A34   A(13,11,14)           107.6593         estimate D2E/DX2                !
 ! A35   A(11,14,15)           107.0319         estimate D2E/DX2                !
 ! A36   A(8,17,18)            107.768          estimate D2E/DX2                !
 ! A37   A(9,20,21)            107.96           estimate D2E/DX2                !
 ! A38   A(10,23,24)           107.906          estimate D2E/DX2                !
 ! D1    D(4,1,2,3)             60.0            estimate D2E/DX2                !
 ! D2    D(5,1,2,3)            -60.0            estimate D2E/DX2                !
 ! D3    D(6,1,2,3)            180.0            estimate D2E/DX2                !
 ! D4    D(2,1,6,7)             -1.694          estimate D2E/DX2                !
 ! D5    D(2,1,6,8)            179.793          estimate D2E/DX2                !
 ! D6    D(4,1,6,7)            117.7715         estimate D2E/DX2                !
 ! D7    D(4,1,6,8)            -60.7415         estimate D2E/DX2                !
 ! D8    D(5,1,6,7)           -121.102          estimate D2E/DX2                !
 ! D9    D(5,1,6,8)             60.385          estimate D2E/DX2                !
 ! D10   D(1,6,8,9)             -1.4906         estimate D2E/DX2                !
 ! D11   D(1,6,8,16)           122.0863         estimate D2E/DX2                !
 ! D12   D(1,6,8,17)          -122.9186         estimate D2E/DX2                !
 ! D13   D(7,6,8,9)            180.0            estimate D2E/DX2                !
 ! D14   D(7,6,8,16)           -56.4232         estimate D2E/DX2                !
 ! D15   D(7,6,8,17)            58.5719         estimate D2E/DX2                !
 ! D16   D(6,8,9,10)           178.812          estimate D2E/DX2                !
 ! D17   D(6,8,9,19)            59.4631         estimate D2E/DX2                !
 ! D18   D(6,8,9,20)           -55.71           estimate D2E/DX2                !
 ! D19   D(16,8,9,10)           57.041          estimate D2E/DX2                !
 ! D20   D(16,8,9,19)          -62.3079         estimate D2E/DX2                !
 ! D21   D(16,8,9,20)         -177.481          estimate D2E/DX2                !
 ! D22   D(17,8,9,10)          -59.832          estimate D2E/DX2                !
 ! D23   D(17,8,9,19)         -179.1809         estimate D2E/DX2                !
 ! D24   D(17,8,9,20)           65.646          estimate D2E/DX2                !
 ! D25   D(6,8,17,18)         -115.0804         estimate D2E/DX2                !
 ! D26   D(9,8,17,18)          119.126          estimate D2E/DX2                !
 ! D27   D(16,8,17,18)           0.0            estimate D2E/DX2                !
 ! D28   D(8,9,10,11)         -179.087          estimate D2E/DX2                !
 ! D29   D(8,9,10,22)           60.4499         estimate D2E/DX2                !
 ! D30   D(8,9,10,23)          -66.447          estimate D2E/DX2                !
 ! D31   D(19,9,10,11)         -60.315          estimate D2E/DX2                !
 ! D32   D(19,9,10,22)         179.222          estimate D2E/DX2                !
 ! D33   D(19,9,10,23)          52.325          estimate D2E/DX2                !
 ! D34   D(20,9,10,11)          55.135          estimate D2E/DX2                !
 ! D35   D(20,9,10,22)         -65.3281         estimate D2E/DX2                !
 ! D36   D(20,9,10,23)         167.775          estimate D2E/DX2                !
 ! D37   D(8,9,20,21)          115.2421         estimate D2E/DX2                !
 ! D38   D(10,9,20,21)        -116.1799         estimate D2E/DX2                !
 ! D39   D(19,9,20,21)           0.0            estimate D2E/DX2                !
 ! D40   D(9,10,11,12)          62.961          estimate D2E/DX2                !
 ! D41   D(9,10,11,13)         -59.764          estimate D2E/DX2                !
 ! D42   D(9,10,11,14)        -178.59           estimate D2E/DX2                !
 ! D43   D(22,10,11,12)       -174.9777         estimate D2E/DX2                !
 ! D44   D(22,10,11,13)         62.2974         estimate D2E/DX2                !
 ! D45   D(22,10,11,14)        -56.5287         estimate D2E/DX2                !
 ! D46   D(23,10,11,12)        -54.514          estimate D2E/DX2                !
 ! D47   D(23,10,11,13)       -177.2389         estimate D2E/DX2                !
 ! D48   D(23,10,11,14)         63.935          estimate D2E/DX2                !
 ! D49   D(9,10,23,24)         125.0235         estimate D2E/DX2                !
 ! D50   D(11,10,23,24)       -116.1399         estimate D2E/DX2                !
 ! D51   D(22,10,23,24)          0.0            estimate D2E/DX2                !
 ! D52   D(10,11,14,15)       -179.647          estimate D2E/DX2                !
 ! D53   D(12,11,14,15)        -59.077          estimate D2E/DX2                !
 ! D54   D(13,11,14,15)         58.9155         estimate D2E/DX2                !
 --------------------------------------------------------------------------------
 Trust Radius=3.00D-01 FncErr=1.00D-07 GrdErr=1.00D-06
 Number of steps in this run=    125 maximum allowed number of steps=    144.
 GradGradGradGradGradGradGradGradGradGradGradGradGradGradGradGradGradGrad

                          Input orientation:                          
 ---------------------------------------------------------------------
 Center     Atomic      Atomic             Coordinates (Angstroms)
 Number     Number       Type             X           Y           Z
 ---------------------------------------------------------------------
      1          6           0        0.000000    0.000000    0.000000
      2          8           0        0.000000    0.000000    1.413516
      3          1           0        0.927487    0.000000    1.705916
      4          1           0        0.518025   -0.897246   -0.348146
      5          1           0        0.517855    0.896952   -0.346765
      6          6           0       -1.421472    0.000000   -0.528838
      7          8           0       -2.388894   -0.031101    0.233292
      8          6           0       -1.598381    0.004915   -2.046186
      9          6           0       -0.298033    0.045392   -2.863171
     10          6           0       -0.475503    0.021535   -4.392866
     11          6           0        0.868280    0.042020   -5.121945
     12          1           0        1.456696   -0.851959   -4.890189
     13          1           0        1.450260    0.935079   -4.878545
     14          8           0        0.629072    0.051603   -6.525700
     15          1           0        1.497715    0.058819   -6.962591
     16          1           0       -2.186879   -0.881805   -2.305009
     17          8           0       -2.380652    1.139726   -2.396895
     18          1           0       -3.220032    0.818209   -2.768774
     19          1           0        0.275090   -0.847631   -2.582168
     20          8           0        0.493788    1.167463   -2.484467
     21          1           0        1.314964    0.833878   -2.085668
     22          1           0       -1.055845    0.887837   -4.729486
     23          8           0       -1.016917   -1.234648   -4.800512
     24          1           0       -1.823387   -1.059831   -5.314954
 ---------------------------------------------------------------------
                    Distance matrix (angstroms):
                    1          2          3          4          5
     1  C    0.000000
     2  O    1.413516   0.000000
     3  H    1.941747   0.972486   0.000000
     4  H    1.092980   2.043735   2.278570   0.000000
     5  H    1.092219   2.042373   2.277240   1.794199   0.000000
     6  C    1.516658   2.406932   3.242180   2.144609   2.144449
     7  O    2.400460   2.664716   3.628770   3.088439   3.105952
     8  C    2.596483   3.811087   4.523086   2.859442   2.856959
     9  C    2.878998   4.287299   4.730805   2.807110   2.779051
    10  C    4.418579   5.825859   6.258114   4.265093   4.257235
    11  C    5.195190   6.593021   6.828247   4.877915   4.863749
    12  H    5.173176   6.525680   6.671919   4.638244   4.958106
    13  H    5.174730   6.524390   6.671041   4.975037   4.626863
    14  O    6.556154   7.964267   8.237185   6.250985   6.237485
    15  H    7.122098   8.509158   8.687441   6.754608   6.740308
    16  H    3.297436   4.403118   5.154064   3.338571   3.783422
    17  O    3.565331   4.635268   5.392200   4.092549   3.558555
    18  H    4.324833   5.341313   6.155829   4.772347   4.454675
    19  H    2.731619   4.093854   4.419476   2.247740   2.845968
    20  O    2.789153   4.098911   4.371541   2.971107   2.154884
    21  H    2.602786   3.829983   3.901487   2.578931   1.913934
    22  H    4.926571   6.295994   6.792368   4.985953   4.656700
    23  O    5.059979   6.416589   6.902077   4.721594   5.170600
    24  H    5.718104   7.051262   7.614668   5.493435   5.830379
                    6          7          8          9         10
     6  C    0.000000
     7  O    1.231956   0.000000
     8  C    1.527634   2.412929   0.000000
     9  C    2.591001   3.737062   1.536232   0.000000
    10  C    3.978195   5.006513   2.601545   1.540140   0.000000
    11  C    5.132384   6.268420   3.942853   2.542117   1.528963
    12  H    5.294437   6.458516   4.260995   2.827210   2.178007
    13  H    5.295391   6.465561   4.263997   2.812437   2.186095
    14  O    6.337961   7.402630   5.002976   3.778053   2.402076
    15  H    7.065288   8.178909   5.810314   4.475504   3.240134
    16  H    2.125608   2.684675   1.095259   2.176919   2.846749
    17  O    2.389276   2.879025   1.422231   2.398392   2.977221
    18  H    2.986904   3.228702   1.952776   3.023944   3.287066
    19  H    2.795168   3.961104   2.126971   1.097690   2.144170
    20  O    2.975849   4.139158   2.433265   1.424584   2.427893
    21  H    3.256863   4.454697   3.029244   1.956523   3.031309
    22  H    4.308988   5.220214   2.876455   2.183375   1.095714
    23  O    4.464887   5.354440   3.075862   2.430758   1.427340
    24  H    4.918504   5.671077   3.445164   3.091838   1.958670
                   11         12         13         14         15
    11  C    0.000000
    12  H    1.095054   0.000000
    13  H    1.093389   1.787088   0.000000
    14  O    1.424023   2.043595   2.041568   0.000000
    15  H    1.945366   2.264078   2.261268   0.972351   0.000000
    16  H    4.257062   4.467626   4.811750   5.158979   6.012826
    17  O    4.380230   4.990848   4.569065   5.223933   6.087337
    18  H    4.780604   5.400153   5.126053   5.433027   6.357823
    19  H    2.755689   2.592908   3.135670   4.060218   4.637302
    20  O    2.891912   3.285233   2.588523   4.194641   4.721287
    21  H    3.169471   3.275282   2.797983   4.560295   4.941507
    22  H    2.138150   3.060323   2.510978   2.600888   3.492091
    23  O    2.299384   2.504647   3.286452   2.709243   3.559637
    24  H    2.914858   3.313998   3.858352   2.952244   3.872442
                   16         17         18         19         20
    16  H    0.000000
    17  O    2.032874   0.000000
    18  H    2.042677   0.972741   0.000000
    19  H    2.477756   3.322180   3.876303   0.000000
    20  O    3.379006   2.875907   3.741025   2.029280   0.000000
    21  H    3.905712   3.721288   4.586182   2.038461   0.971931
    22  H    3.207641   2.694354   2.921121   3.064998   2.742200
    23  O    2.778641   3.643460   3.632616   2.596173   3.662845
    24  H    3.037036   3.696439   3.458422   3.452065   4.282732
                   21         22         23         24
    21  H    0.000000
    22  H    3.551538   0.000000
    23  O    4.133624   2.124030   0.000000
    24  H    4.885045   2.173776   0.972422   0.000000
 Stoichiometry    C6H12O6
 Framework group  C1[X(C6H12O6)]
 Deg. of freedom    66
 Full point group                 C1      NOp   1
 Largest Abelian subgroup         C1      NOp   1
 Largest concise Abelian subgroup C1      NOp   1
                         Standard orientation:                         
 ---------------------------------------------------------------------
 Center     Atomic      Atomic             Coordinates (Angstroms)
 Number     Number       Type             X           Y           Z
 ---------------------------------------------------------------------
      1          6           0       -2.355528   -1.033687   -0.249577
      2          8           0       -3.741821   -1.300766   -0.319484
      3          1           0       -3.851129   -2.265227   -0.379457
      4          1           0       -1.879789   -1.424054   -1.152844
      5          1           0       -1.951527   -1.527471    0.636935
      6          6           0       -2.108853    0.459701   -0.153672
      7          8           0       -3.040188    1.265851   -0.174919
      8          6           0       -0.654769    0.919539   -0.065045
      9          6           0        0.393697   -0.203153   -0.048068
     10          6           0        1.860911    0.261225    0.012495
     11          6           0        2.832259   -0.919504    0.003049
     12          1           0        2.752605   -1.488635   -0.929093
     13          1           0        2.669883   -1.587436    0.853343
     14          8           0        4.162835   -0.420326    0.093772
     15          1           0        4.757231   -1.189721    0.079954
     16          1           0       -0.478763    1.596410   -0.907933
     17          8           0       -0.504988    1.687312    1.122739
     18          1           0       -0.288267    2.598935    0.861583
     19          1           0        0.262781   -0.766652   -0.980941
     20          8           0        0.129793   -1.115544    1.013693
     21          1           0       -0.091125   -1.976683    0.620901
     22          1           0        2.046040    0.843849    0.921817
     23          8           0        2.206370    0.941335   -1.193908
     24          1           0        2.549744    1.819051   -0.954501
 ---------------------------------------------------------------------
 Rotational constants (GHZ):      1.8270279      0.4441500      0.3971447
 Standard basis: 6-311G(d,p) (5D, 7F)
 There are   288 symmetry adapted basis functions of A   symmetry.
 Integral buffers will be    131072 words long.
 Raffenetti 2 integral format.
 Two-electron integral symmetry is turned on.
   288 basis functions,   480 primitive gaussians,   300 cartesian basis functions
    48 alpha electrons       48 beta electrons
       nuclear repulsion energy       779.9262837514 Hartrees.
 NAtoms=   24 NActive=   24 NUniq=   24 SFac= 1.00D+00 NAtFMM=   50 NAOKFM=F Big=F
 One-electron integrals computed using PRISM.
 NBasis=   288 RedAO= T  NBF=   288
 NBsUse=   288 1.00D-06 NBFU=   288
 Harris functional with IExCor=  402 diagonalized for initial guess.
 ExpMin= 1.03D-01 ExpMax= 8.59D+03 ExpMxC= 1.30D+03 IAcc=1 IRadAn=         1 AccDes= 0.00D+00
 HarFok:  IExCor=  402 AccDes= 0.00D+00 IRadAn=         1 IDoV= 1
 ScaDFX=  1.000000  1.000000  1.000000  1.000000
 FoFCou: FMM=F IPFlag=           0 FMFlag=      100000 FMFlg1=           0
         NFxFlg=           0 DoJE=T BraDBF=F KetDBF=T FulRan=T
         Omega=  0.000000  0.000000  1.000000  0.000000  0.000000 ICntrl=     500 IOpCl=  0
         NMat0=    1 NMatS0=    1 NMatT0=    0 NMatD0=    1 NMtDS0=    0 NMtDT0=    0
         I1Cent=           4 NGrid=           0.
 Petite list used in FoFCou.
 Initial guess orbital symmetries:
       Occupied  (A) (A) (A) (A) (A) (A) (A) (A) (A) (A) (A) (A)
                 (A) (A) (A) (A) (A) (A) (A) (A) (A) (A) (A) (A)
                 (A) (A) (A) (A) (A) (A) (A) (A) (A) (A) (A) (A)
                 (A) (A) (A) (A) (A) (A) (A) (A) (A) (A) (A) (A)
       Virtual   (A) (A) (A) (A) (A) (A) (A) (A) (A) (A) (A) (A)
                 (A) (A) (A) (A) (A) (A) (A) (A) (A) (A) (A) (A)
                 (A) (A) (A) (A) (A) (A) (A) (A) (A) (A) (A) (A)
                 (A) (A) (A) (A) (A) (A) (A) (A) (A) (A) (A) (A)
                 (A) (A) (A) (A) (A) (A) (A) (A) (A) (A) (A) (A)
                 (A) (A) (A) (A) (A) (A) (A) (A) (A) (A) (A) (A)
                 (A) (A) (A) (A) (A) (A) (A) (A) (A) (A) (A) (A)
                 (A) (A) (A) (A) (A) (A) (A) (A) (A) (A) (A) (A)
                 (A) (A) (A) (A) (A) (A) (A) (A) (A) (A) (A) (A)
                 (A) (A) (A) (A) (A) (A) (A) (A) (A) (A) (A) (A)
                 (A) (A) (A) (A) (A) (A) (A) (A) (A) (A) (A) (A)
                 (A) (A) (A) (A) (A) (A) (A) (A) (A) (A) (A) (A)
                 (A) (A) (A) (A) (A) (A) (A) (A) (A) (A) (A) (A)
                 (A) (A) (A) (A) (A) (A) (A) (A) (A) (A) (A) (A)
                 (A) (A) (A) (A) (A) (A) (A) (A) (A) (A) (A) (A)
                 (A) (A) (A) (A) (A) (A) (A) (A) (A) (A) (A) (A)
                 (A) (A) (A) (A) (A) (A) (A) (A) (A) (A) (A) (A)
                 (A) (A) (A) (A) (A) (A) (A) (A) (A) (A) (A) (A)
                 (A) (A) (A) (A) (A) (A) (A) (A) (A) (A) (A) (A)
                 (A) (A) (A) (A) (A) (A) (A) (A) (A) (A) (A) (A)
 The electronic state of the initial guess is 1-A.
 Requested convergence on RMS density matrix=1.00D-08 within 128 cycles.
 Requested convergence on MAX density matrix=1.00D-06.
 Requested convergence on             energy=1.00D-06.
 No special actions if energy rises.
 Keep R1 ints in memory in canonical form, NReq=1033417440.
 Integral accuracy reduced to 1.0D-05 until final iterations.
 Initial convergence to 1.0D-05 achieved.  Increase integral accuracy.
 SCF Done:  E(RB3LYP) =  -687.319432290     A.U. after   14 cycles
             Convg  =    0.5974D-08             -V/T =  2.0030

 **********************************************************************

            Population analysis using the SCF density.

 **********************************************************************

 Orbital symmetries:
       Occupied  (A) (A) (A) (A) (A) (A) (A) (A) (A) (A) (A) (A)
                 (A) (A) (A) (A) (A) (A) (A) (A) (A) (A) (A) (A)
                 (A) (A) (A) (A) (A) (A) (A) (A) (A) (A) (A) (A)
                 (A) (A) (A) (A) (A) (A) (A) (A) (A) (A) (A) (A)
       Virtual   (A) (A) (A) (A) (A) (A) (A) (A) (A) (A) (A) (A)
                 (A) (A) (A) (A) (A) (A) (A) (A) (A) (A) (A) (A)
                 (A) (A) (A) (A) (A) (A) (A) (A) (A) (A) (A) (A)
                 (A) (A) (A) (A) (A) (A) (A) (A) (A) (A) (A) (A)
                 (A) (A) (A) (A) (A) (A) (A) (A) (A) (A) (A) (A)
                 (A) (A) (A) (A) (A) (A) (A) (A) (A) (A) (A) (A)
                 (A) (A) (A) (A) (A) (A) (A) (A) (A) (A) (A) (A)
                 (A) (A) (A) (A) (A) (A) (A) (A) (A) (A) (A) (A)
                 (A) (A) (A) (A) (A) (A) (A) (A) (A) (A) (A) (A)
                 (A) (A) (A) (A) (A) (A) (A) (A) (A) (A) (A) (A)
                 (A) (A) (A) (A) (A) (A) (A) (A) (A) (A) (A) (A)
                 (A) (A) (A) (A) (A) (A) (A) (A) (A) (A) (A) (A)
                 (A) (A) (A) (A) (A) (A) (A) (A) (A) (A) (A) (A)
                 (A) (A) (A) (A) (A) (A) (A) (A) (A) (A) (A) (A)
                 (A) (A) (A) (A) (A) (A) (A) (A) (A) (A) (A) (A)
                 (A) (A) (A) (A) (A) (A) (A) (A) (A) (A) (A) (A)
                 (A) (A) (A) (A) (A) (A) (A) (A) (A) (A) (A) (A)
                 (A) (A) (A) (A) (A) (A) (A) (A) (A) (A) (A) (A)
                 (A) (A) (A) (A) (A) (A) (A) (A) (A) (A) (A) (A)
                 (A) (A) (A) (A) (A) (A) (A) (A) (A) (A) (A) (A)
 The electronic state is 1-A.
 Alpha  occ. eigenvalues --  -19.13835 -19.12795 -19.12697 -19.11844 -19.11457
 Alpha  occ. eigenvalues --  -19.11258 -10.26575 -10.24250 -10.24031 -10.23361
 Alpha  occ. eigenvalues --  -10.23197 -10.21571  -1.05959  -1.04629  -1.03741
 Alpha  occ. eigenvalues --   -1.03137  -1.01690  -1.01325  -0.79114  -0.75878
 Alpha  occ. eigenvalues --   -0.71437  -0.65567  -0.59484  -0.57428  -0.54997
 Alpha  occ. eigenvalues --   -0.53779  -0.53259  -0.51930  -0.50347  -0.48571
 Alpha  occ. eigenvalues --   -0.47956  -0.45266  -0.44032  -0.43515  -0.42056
 Alpha  occ. eigenvalues --   -0.41122  -0.37402  -0.36890  -0.35726  -0.35308
 Alpha  occ. eigenvalues --   -0.34475  -0.33545  -0.32280  -0.29836  -0.28458
 Alpha  occ. eigenvalues --   -0.27519  -0.27004  -0.25154
 Alpha virt. eigenvalues --   -0.04126   0.00114   0.01780   0.02984   0.03313
 Alpha virt. eigenvalues --    0.05775   0.06472   0.09215   0.09893   0.10695
 Alpha virt. eigenvalues --    0.11957   0.12488   0.14337   0.16299   0.16566
 Alpha virt. eigenvalues --    0.17229   0.19606   0.21398   0.21744   0.24877
 Alpha virt. eigenvalues --    0.26184   0.28053   0.29687   0.31962   0.35444
 Alpha virt. eigenvalues --    0.36272   0.37597   0.38322   0.38922   0.39383
 Alpha virt. eigenvalues --    0.41304   0.42420   0.43501   0.45756   0.46700
 Alpha virt. eigenvalues --    0.46987   0.48422   0.48953   0.50149   0.51360
 Alpha virt. eigenvalues --    0.52276   0.52804   0.55360   0.56207   0.56231
 Alpha virt. eigenvalues --    0.57716   0.59551   0.59928   0.62331   0.62648
 Alpha virt. eigenvalues --    0.63379   0.64265   0.66191   0.68965   0.72975
 Alpha virt. eigenvalues --    0.74044   0.76977   0.78919   0.79396   0.80318
 Alpha virt. eigenvalues --    0.81873   0.83734   0.85276   0.85343   0.87497
 Alpha virt. eigenvalues --    0.87834   0.89913   0.90751   0.92543   0.93484
 Alpha virt. eigenvalues --    0.94932   0.96613   0.98964   1.00794   1.03070
 Alpha virt. eigenvalues --    1.06783   1.08138   1.09109   1.12836   1.17661
 Alpha virt. eigenvalues --    1.19167   1.22340   1.23132   1.30938   1.32132
 Alpha virt. eigenvalues --    1.33460   1.34792   1.36396   1.37113   1.38409
 Alpha virt. eigenvalues --    1.39103   1.39692   1.40714   1.43910   1.45231
 Alpha virt. eigenvalues --    1.46352   1.47061   1.48131   1.49565   1.51399
 Alpha virt. eigenvalues --    1.52463   1.52735   1.55469   1.56606   1.57527
 Alpha virt. eigenvalues --    1.58402   1.59998   1.60183   1.62740   1.63614
 Alpha virt. eigenvalues --    1.65646   1.66679   1.68100   1.71741   1.72971
 Alpha virt. eigenvalues --    1.74990   1.77319   1.77519   1.79366   1.83551
 Alpha virt. eigenvalues --    1.86506   1.88857   1.91842   1.93202   1.93826
 Alpha virt. eigenvalues --    1.93973   1.96070   1.96734   1.98676   1.99870
 Alpha virt. eigenvalues --    2.02413   2.04505   2.06528   2.07326   2.09655
 Alpha virt. eigenvalues --    2.13289   2.14764   2.19116   2.22013   2.22391
 Alpha virt. eigenvalues --    2.24360   2.30255   2.34262   2.36223   2.40140
 Alpha virt. eigenvalues --    2.40197   2.41563   2.44614   2.45722   2.49931
 Alpha virt. eigenvalues --    2.51724   2.52239   2.52841   2.54811   2.58260
 Alpha virt. eigenvalues --    2.59057   2.66203   2.70145   2.73130   2.75175
 Alpha virt. eigenvalues --    2.78988   2.80684   2.83846   2.85133   2.88481
 Alpha virt. eigenvalues --    2.89254   2.91377   2.92784   2.93766   2.96655
 Alpha virt. eigenvalues --    2.99990   3.03258   3.07693   3.09303   3.10254
 Alpha virt. eigenvalues --    3.10581   3.12699   3.14854   3.16515   3.17700
 Alpha virt. eigenvalues --    3.18173   3.18952   3.22535   3.23655   3.26181
 Alpha virt. eigenvalues --    3.28647   3.30400   3.30639   3.31840   3.33250
 Alpha virt. eigenvalues --    3.43996   3.48769   3.58450   3.71954   3.74743
 Alpha virt. eigenvalues --    3.78492   3.79001   3.81240   3.81675   3.83596
 Alpha virt. eigenvalues --    3.87791   3.89217   3.91411   3.92048   3.92337
 Alpha virt. eigenvalues --    4.02024   4.03953   4.08379   4.20148   4.34395
 Alpha virt. eigenvalues --    4.83644   4.86646   4.90720   4.93284   4.95399
 Alpha virt. eigenvalues --    5.01818   5.02193   5.23523   5.25581   5.26350
 Alpha virt. eigenvalues --    5.27633   5.29373   5.55986   5.59056   5.61298
 Alpha virt. eigenvalues --    5.62002   5.64903   5.66284  23.67424  23.75500
 Alpha virt. eigenvalues --   23.77610  23.79292  23.80175  23.82204  49.86403
 Alpha virt. eigenvalues --   49.87110  49.89838  49.90552  49.92753  49.96396
          Condensed to atoms (all electrons):
              1          2          3          4          5          6
     1  C    5.063456   0.257175  -0.034175   0.373963   0.388624   0.187574
     2  O    0.257175   7.911054   0.302741  -0.030007  -0.023514  -0.038023
     3  H   -0.034175   0.302741   0.498916  -0.006569  -0.004129   0.010422
     4  H    0.373963  -0.030007  -0.006569   0.611638  -0.030388  -0.038705
     5  H    0.388624  -0.023514  -0.004129  -0.030388   0.560054  -0.048646
     6  C    0.187574  -0.038023   0.010422  -0.038705  -0.048646   4.976349
     7  O   -0.090010   0.004099  -0.000066   0.001441   0.000937   0.652225
     8  C   -0.119543   0.002434  -0.000644   0.008152   0.010560   0.203109
     9  C    0.006423  -0.000034   0.000040  -0.000485  -0.014768  -0.052375
    10  C   -0.000247   0.000000  -0.000005   0.000811   0.001595   0.003956
    11  C   -0.000008   0.000000   0.000000  -0.000024  -0.000295   0.000109
    12  H    0.000003   0.000000   0.000000  -0.000100  -0.000004   0.000004
    13  H    0.000015   0.000000   0.000000   0.000006  -0.000081  -0.000032
    14  O    0.000000   0.000000   0.000000   0.000000   0.000000   0.000000
    15  H    0.000000   0.000000   0.000000   0.000000   0.000000   0.000000
    16  H    0.010521  -0.000080   0.000036  -0.002406   0.000831  -0.027114
    17  O    0.003616  -0.000008   0.000010   0.000020   0.000698  -0.048239
    18  H   -0.000213   0.000004  -0.000001   0.000020  -0.000172   0.001534
    19  H   -0.008108  -0.000249  -0.000054   0.005288   0.002449   0.004426
    20  O   -0.013436   0.000230  -0.000053  -0.001530   0.028991  -0.001168
    21  H    0.008759  -0.000612  -0.000124  -0.000417  -0.004099  -0.002482
    22  H   -0.000204   0.000000   0.000000  -0.000048   0.000164   0.001233
    23  O   -0.000030   0.000000   0.000000  -0.000075  -0.000038   0.000276
    24  H    0.000002   0.000000   0.000000   0.000008   0.000006   0.000000
              7          8          9         10         11         12
     1  C   -0.090010  -0.119543   0.006423  -0.000247  -0.000008   0.000003
     2  O    0.004099   0.002434  -0.000034   0.000000   0.000000   0.000000
     3  H   -0.000066  -0.000644   0.000040  -0.000005   0.000000   0.000000
     4  H    0.001441   0.008152  -0.000485   0.000811  -0.000024  -0.000100
     5  H    0.000937   0.010560  -0.014768   0.001595  -0.000295  -0.000004
     6  C    0.652225   0.203109  -0.052375   0.003956   0.000109   0.000004
     7  O    7.778699  -0.073358   0.004629  -0.000133   0.000001   0.000000
     8  C   -0.073358   5.303837   0.156935  -0.021545   0.009397  -0.000778
     9  C    0.004629   0.156935   5.517969   0.120610  -0.070153   0.001764
    10  C   -0.000133  -0.021545   0.120610   5.219144   0.309162  -0.040184
    11  C    0.000001   0.009397  -0.070153   0.309162   4.811285   0.378232
    12  H    0.000000  -0.000778   0.001764  -0.040184   0.378232   0.644944
    13  H    0.000000  -0.000418   0.004133  -0.048278   0.386644  -0.044909
    14  O    0.000000  -0.000044   0.003189  -0.049831   0.277433  -0.036981
    15  H    0.000000   0.000017  -0.000718   0.009810  -0.034573  -0.006424
    16  H    0.003133   0.372901  -0.043805  -0.007619   0.001117  -0.000067
    17  O    0.000762   0.253040  -0.092279   0.010626  -0.000097  -0.000023
    18  H    0.001786  -0.023191   0.007373   0.002074   0.000060   0.000000
    19  H   -0.000024  -0.061758   0.371592  -0.022868  -0.014137   0.007669
    20  O   -0.000032  -0.052038   0.206373  -0.047225   0.004934  -0.000356
    21  H    0.000063   0.014404  -0.027147  -0.002640   0.002560  -0.000388
    22  H   -0.000016  -0.013396  -0.046826   0.373595  -0.038513   0.011446
    23  O    0.000000   0.008139  -0.060820   0.229713  -0.068442   0.001881
    24  H   -0.000001   0.001496   0.004376  -0.028328   0.004915  -0.001121
             13         14         15         16         17         18
     1  C    0.000015   0.000000   0.000000   0.010521   0.003616  -0.000213
     2  O    0.000000   0.000000   0.000000  -0.000080  -0.000008   0.000004
     3  H    0.000000   0.000000   0.000000   0.000036   0.000010  -0.000001
     4  H    0.000006   0.000000   0.000000  -0.002406   0.000020   0.000020
     5  H   -0.000081   0.000000   0.000000   0.000831   0.000698  -0.000172
     6  C   -0.000032   0.000000   0.000000  -0.027114  -0.048239   0.001534
     7  O    0.000000   0.000000   0.000000   0.003133   0.000762   0.001786
     8  C   -0.000418  -0.000044   0.000017   0.372901   0.253040  -0.023191
     9  C    0.004133   0.003189  -0.000718  -0.043805  -0.092279   0.007373
    10  C   -0.048278  -0.049831   0.009810  -0.007619   0.010626   0.002074
    11  C    0.386644   0.277433  -0.034573   0.001117  -0.000097   0.000060
    12  H   -0.044909  -0.036981  -0.006424  -0.000067  -0.000023   0.000000
    13  H    0.629032  -0.036770  -0.005637  -0.000106  -0.000062  -0.000003
    14  O   -0.036770   7.932991   0.308976  -0.000007   0.000001  -0.000002
    15  H   -0.005637   0.308976   0.491592   0.000001  -0.000001   0.000001
    16  H   -0.000106  -0.000007   0.000001   0.569387  -0.022768  -0.019138
    17  O   -0.000062   0.000001  -0.000001  -0.022768   7.946800   0.309191
    18  H   -0.000003  -0.000002   0.000001  -0.019138   0.309191   0.471389
    19  H    0.000728  -0.000269  -0.000036   0.001661   0.005093  -0.000919
    20  O    0.014486   0.000037   0.000005   0.003976   0.002191  -0.000358
    21  H    0.001419  -0.000026  -0.000009  -0.000989  -0.000648   0.000077
    22  H   -0.005262   0.007040  -0.000599   0.001368   0.018860  -0.001606
    23  O    0.006592   0.002914  -0.000004   0.016121  -0.000380   0.000015
    24  H   -0.000478   0.003473   0.000002  -0.000369   0.000040   0.000271
             19         20         21         22         23         24
     1  C   -0.008108  -0.013436   0.008759  -0.000204  -0.000030   0.000002
     2  O   -0.000249   0.000230  -0.000612   0.000000   0.000000   0.000000
     3  H   -0.000054  -0.000053  -0.000124   0.000000   0.000000   0.000000
     4  H    0.005288  -0.001530  -0.000417  -0.000048  -0.000075   0.000008
     5  H    0.002449   0.028991  -0.004099   0.000164  -0.000038   0.000006
     6  C    0.004426  -0.001168  -0.002482   0.001233   0.000276   0.000000
     7  O   -0.000024  -0.000032   0.000063  -0.000016   0.000000  -0.000001
     8  C   -0.061758  -0.052038   0.014404  -0.013396   0.008139   0.001496
     9  C    0.371592   0.206373  -0.027147  -0.046826  -0.060820   0.004376
    10  C   -0.022868  -0.047225  -0.002640   0.373595   0.229713  -0.028328
    11  C   -0.014137   0.004934   0.002560  -0.038513  -0.068442   0.004915
    12  H    0.007669  -0.000356  -0.000388   0.011446   0.001881  -0.001121
    13  H    0.000728   0.014486   0.001419  -0.005262   0.006592  -0.000478
    14  O   -0.000269   0.000037  -0.000026   0.007040   0.002914   0.003473
    15  H   -0.000036   0.000005  -0.000009  -0.000599  -0.000004   0.000002
    16  H    0.001661   0.003976  -0.000989   0.001368   0.016121  -0.000369
    17  O    0.005093   0.002191  -0.000648   0.018860  -0.000380   0.000040
    18  H   -0.000919  -0.000358   0.000077  -0.001606   0.000015   0.000271
    19  H    0.640177  -0.034343  -0.026296   0.013580   0.006323  -0.001308
    20  O   -0.034343   7.975944   0.303083   0.003347   0.001378  -0.000199
    21  H   -0.026296   0.303083   0.496688  -0.001570   0.000019   0.000017
    22  H    0.013580   0.003347  -0.001570   0.587736  -0.026730  -0.014536
    23  O    0.006323   0.001378   0.000019  -0.026730   7.972741   0.310001
    24  H   -0.001308  -0.000199   0.000017  -0.014536   0.310001   0.470066
 Mulliken atomic charges:
              1
     1  C   -0.034156
     2  O   -0.385211
     3  H    0.233656
     4  H    0.109404
     5  H    0.131224
     6  C    0.215568
     7  O   -0.284134
     8  C    0.022290
     9  C    0.004003
    10  C   -0.012191
    11  C    0.040395
    12  H    0.085393
    13  H    0.098981
    14  O   -0.412124
    15  H    0.237598
    16  H    0.143415
    17  O   -0.386440
    18  H    0.251809
    19  H    0.111383
    20  O   -0.394238
    21  H    0.240359
    22  H    0.130940
    23  O   -0.399594
    24  H    0.251669
 Sum of Mulliken atomic charges =   0.00000
 Mulliken charges with hydrogens summed into heavy atoms:
              1
     1  C    0.206473
     2  O   -0.151554
     6  C    0.215568
     7  O   -0.284134
     8  C    0.165705
     9  C    0.115385
    10  C    0.118749
    11  C    0.224768
    14  O   -0.174526
    17  O   -0.134631
    20  O   -0.153878
    23  O   -0.147925
 Sum of Mulliken charges with hydrogens summed into heavy atoms =   0.00000
 Electronic spatial extent (au):  <R**2>=           2758.4466
 Charge=              0.0000 electrons
 Dipole moment (field-independent basis, Debye):
    X=              3.3210    Y=             -3.2544    Z=             -1.3898  Tot=              4.8530
 Quadrupole moment (field-independent basis, Debye-Ang):
   XX=            -85.4494   YY=            -52.1349   ZZ=            -77.0500
   XY=              7.4181   XZ=              2.3087   YZ=              0.8940
 Traceless Quadrupole moment (field-independent basis, Debye-Ang):
   XX=            -13.9046   YY=             19.4098   ZZ=             -5.5052
   XY=              7.4181   XZ=              2.3087   YZ=              0.8940
 Octapole moment (field-independent basis, Debye-Ang**2):
  XXX=             83.1970  YYY=              0.2708  ZZZ=             -0.8181  XYY=              8.1758
  XXY=            -60.2063  XXZ=              6.8862  XZZ=             -5.7830  YZZ=             -1.1734
  YYZ=             -1.8675  XYZ=             -1.6291
 Hexadecapole moment (field-independent basis, Debye-Ang**3):
 XXXX=          -2609.9443 YYYY=           -407.8554 ZZZZ=           -242.2132 XXXY=            -18.8894
 XXXZ=            -13.7838 YYYX=             93.0001 YYYZ=              5.0417 ZZZX=              6.5647
 ZZZY=              0.8040 XXYY=           -371.0170 XXZZ=           -468.3033 YYZZ=           -127.3368
 XXYZ=              4.1117 YYXZ=             -0.5627 ZZXY=              4.2537
 N-N= 7.799262837514D+02 E-N=-3.176001932553D+03  KE= 6.852373535977D+02
 Calling FoFJK, ICntrl=      2127 FMM=F ISym2X=0 I1Cent= 0 IOpClX= 0 NMat=1 NMatS=1 NMatT=0.
 ***** Axes restored to original set *****
 -------------------------------------------------------------------
 Center     Atomic                   Forces (Hartrees/Bohr)
 Number     Number              X              Y              Z
 -------------------------------------------------------------------
      1        6           0.004539781    0.004764161    0.023738962
      2        8           0.004441382   -0.002633357    0.009402509
      3        1          -0.010925273    0.000329896   -0.003742473
      4        1           0.001343430   -0.002838049   -0.009369921
      5        1          -0.003528967   -0.001602404   -0.004153189
      6        6          -0.023918223   -0.004807726    0.033180499
      7        8           0.031323028    0.002301478   -0.030768955
      8        6          -0.009826110    0.004877062   -0.015252175
      9        6           0.008508704   -0.016511161    0.005421918
     10        6           0.019309396   -0.006511334   -0.009272290
     11        6           0.013237227    0.014436213   -0.005277737
     12        1          -0.002218170   -0.002153226    0.009147841
     13        1           0.000002875    0.000680953    0.007766513
     14        8           0.001581145    0.000816428   -0.009585649
     15        1          -0.010963946    0.000075542    0.004640215
     16        1           0.008345653   -0.005864971    0.000974078
     17        8          -0.015878126    0.004251477   -0.007652491
     18        1           0.010121280    0.006451172    0.007584109
     19        1          -0.003870737   -0.005400811   -0.005857669
     20        8           0.011434722    0.009126561   -0.002292664
     21        1          -0.010005338    0.005769468   -0.009081878
     22        1          -0.002871089   -0.003270077    0.002039659
     23        8          -0.030816533    0.002243129    0.003754975
     24        1           0.010633891   -0.004530425    0.004655814
 -------------------------------------------------------------------
 Cartesian Forces:  Max     0.033180499 RMS     0.011144040

 GradGradGradGradGradGradGradGradGradGradGradGradGradGradGradGradGradGrad
 Berny optimization.
 Internal  Forces:  Max     0.043689484 RMS     0.009411256
 Search for a local minimum.
 Step number   1 out of a maximum of  125
 All quantities printed in internal units (Hartrees-Bohrs-Radians)
 Mixed Optimization -- RFO/linear search
 Second derivative matrix not updated -- first step.
 ITU=  0
     Eigenvalues ---    0.00235   0.00287   0.00383   0.00400   0.00474
     Eigenvalues ---    0.00546   0.01330   0.01367   0.01374   0.01398
     Eigenvalues ---    0.01513   0.03721   0.04319   0.04406   0.04671
     Eigenvalues ---    0.05234   0.05249   0.05269   0.05567   0.06358
     Eigenvalues ---    0.07288   0.07362   0.07684   0.08492   0.11472
     Eigenvalues ---    0.11550   0.13692   0.13970   0.15909   0.16000
     Eigenvalues ---    0.16000   0.16000   0.16000   0.16000   0.17760
     Eigenvalues ---    0.18243   0.19154   0.19782   0.20268   0.22028
     Eigenvalues ---    0.22170   0.24991   0.25000   0.28507   0.28855
     Eigenvalues ---    0.29519   0.29643   0.30691   0.33939   0.34161
     Eigenvalues ---    0.34212   0.34235   0.34424   0.34470   0.34557
     Eigenvalues ---    0.41374   0.41777   0.41860   0.42126   0.43452
     Eigenvalues ---    0.52821   0.52872   0.52885   0.52899   0.52984
     Eigenvalues ---    0.90276
 RFO step:  Lambda=-4.04815908D-02 EMin= 2.34970769D-03
 Linear search not attempted -- first point.
 Maximum step size (   0.300) exceeded in Quadratic search.
    -- Step size scaled by   0.864
 Iteration  1 RMS(Cart)=  0.23709285 RMS(Int)=  0.01133280
 Iteration  2 RMS(Cart)=  0.02744605 RMS(Int)=  0.00088305
 Iteration  3 RMS(Cart)=  0.00037018 RMS(Int)=  0.00087424
 Iteration  4 RMS(Cart)=  0.00000034 RMS(Int)=  0.00087424
 Variable       Old X    -DE/DX   Delta X   Delta X   Delta X     New X
                                 (Linear)    (Quad)   (Total)
    R1        2.67116   0.00566   0.00000   0.01030   0.01030   2.68146
    R2        2.06543   0.00595   0.00000   0.01335   0.01335   2.07879
    R3        2.06400  -0.00167   0.00000  -0.00374  -0.00374   2.06025
    R4        2.86607   0.00166   0.00000   0.00413   0.00413   2.87020
    R5        1.83773  -0.01155   0.00000  -0.01753  -0.01753   1.82020
    R6        2.32806  -0.04369   0.00000  -0.04004  -0.04004   2.28802
    R7        2.88681   0.01856   0.00000   0.04761   0.04761   2.93442
    R8        2.90306   0.00532   0.00000   0.01398   0.01398   2.91703
    R9        2.06974   0.00004   0.00000   0.00008   0.00008   2.06982
   R10        2.68763   0.01172   0.00000   0.02194   0.02194   2.70956
   R11        2.91044  -0.00760   0.00000  -0.02019  -0.02019   2.89025
   R12        2.07433   0.00087   0.00000   0.00199   0.00199   2.07632
   R13        2.69207   0.00950   0.00000   0.01793   0.01793   2.71000
   R14        2.88932  -0.00156   0.00000  -0.00402  -0.00402   2.88531
   R15        2.07060  -0.00169   0.00000  -0.00383  -0.00383   2.06677
   R16        2.69728   0.00727   0.00000   0.01383   0.01383   2.71111
   R17        2.06935   0.00250   0.00000   0.00565   0.00565   2.07500
   R18        2.06621   0.00229   0.00000   0.00514   0.00514   2.07135
   R19        2.69101   0.00646   0.00000   0.01215   0.01215   2.70317
   R20        1.83748  -0.01188   0.00000  -0.01803  -0.01803   1.81945
   R21        1.83821  -0.01376   0.00000  -0.02092  -0.02092   1.81730
   R22        1.83668  -0.01416   0.00000  -0.02146  -0.02146   1.81522
   R23        1.83761  -0.01210   0.00000  -0.01837  -0.01837   1.81924
    A1        1.89497   0.00665   0.00000   0.03306   0.03268   1.92765
    A2        1.89387   0.00756   0.00000   0.03886   0.03852   1.93239
    A3        1.92697  -0.00767   0.00000  -0.02339  -0.02326   1.90370
    A4        1.92656  -0.00104   0.00000  -0.00759  -0.00861   1.91795
    A5        1.91043  -0.00251   0.00000  -0.01974  -0.01975   1.89068
    A6        1.91099  -0.00289   0.00000  -0.02050  -0.02048   1.89051
    A7        1.87619  -0.00052   0.00000  -0.00224  -0.00224   1.87395
    A8        2.11798  -0.01256   0.00000  -0.03755  -0.03765   2.08032
    A9        2.04303   0.03633   0.00000   0.10792   0.10783   2.15086
   A10        2.12188  -0.02380   0.00000  -0.07099  -0.07108   2.05080
   A11        2.01561   0.03130   0.00000   0.12003   0.12059   2.13620
   A12        1.86956  -0.01158   0.00000  -0.06323  -0.06091   1.80865
   A13        1.88725  -0.01094   0.00000  -0.02105  -0.02368   1.86357
   A14        1.92887  -0.01275   0.00000  -0.06827  -0.06607   1.86279
   A15        1.88958  -0.00651   0.00000  -0.00477  -0.00666   1.88292
   A16        1.86730   0.00945   0.00000   0.03368   0.03268   1.89997
   A17        2.01558  -0.01630   0.00000  -0.07606  -0.07616   1.93942
   A18        1.85915   0.00393   0.00000   0.02651   0.02361   1.88276
   A19        1.92822   0.01401   0.00000   0.04833   0.04480   1.97301
   A20        1.87740   0.00189   0.00000  -0.01200  -0.01128   1.86612
   A21        1.91801  -0.00559   0.00000  -0.03716  -0.03633   1.88168
   A22        1.85723   0.00359   0.00000   0.06259   0.06085   1.91808
   A23        1.95210  -0.00451   0.00000  -0.00374  -0.00336   1.94873
   A24        1.93255   0.00271   0.00000  -0.01403  -0.01497   1.91758
   A25        1.91878  -0.00991   0.00000  -0.03693  -0.03821   1.88057
   A26        1.88432  -0.00206   0.00000  -0.00280  -0.00266   1.88166
   A27        1.78133   0.01880   0.00000   0.09748   0.09776   1.87909
   A28        1.99016  -0.00409   0.00000  -0.03159  -0.03338   1.95677
   A29        1.93950  -0.00524   0.00000  -0.03625  -0.03619   1.90331
   A30        1.95260  -0.00144   0.00000  -0.01679  -0.01672   1.93588
   A31        1.89918  -0.01165   0.00000  -0.03615  -0.03600   1.86318
   A32        1.91100   0.00068   0.00000   0.00179   0.00011   1.91111
   A33        1.88009   0.01021   0.00000   0.05039   0.04951   1.92959
   A34        1.87901   0.00826   0.00000   0.04197   0.04139   1.92040
   A35        1.86806   0.00143   0.00000   0.00618   0.00618   1.87424
   A36        1.88091   0.00368   0.00000   0.01588   0.01588   1.89678
   A37        1.88426   0.00181   0.00000   0.00780   0.00780   1.89206
   A38        1.88331   0.00453   0.00000   0.01952   0.01952   1.90284
    D1        1.04720   0.00371   0.00000   0.01978   0.02049   1.06769
    D2       -1.04720  -0.00329   0.00000  -0.01287  -0.01359  -1.06079
    D3        3.14159   0.00016   0.00000   0.00211   0.00212  -3.13947
    D4       -0.02957   0.00165   0.00000   0.02818   0.02806  -0.00150
    D5        3.13798   0.00318   0.00000   0.05605   0.05615  -3.08906
    D6        2.05550   0.00354   0.00000   0.04213   0.04192   2.09742
    D7       -1.06014   0.00507   0.00000   0.07000   0.07001  -0.99013
    D8       -2.11363  -0.00113   0.00000   0.00756   0.00756  -2.10607
    D9        1.05392   0.00041   0.00000   0.03543   0.03565   1.08957
   D10       -0.02602   0.00191   0.00000   0.01957   0.02028  -0.00573
   D11        2.13081  -0.00222   0.00000  -0.03615  -0.03679   2.09402
   D12       -2.14533  -0.00248   0.00000  -0.03931  -0.03905  -2.18438
   D13        3.14159   0.00327   0.00000   0.04696   0.04745  -3.09414
   D14       -0.98477  -0.00087   0.00000  -0.00875  -0.00962  -0.99439
   D15        1.02227  -0.00112   0.00000  -0.01191  -0.01188   1.01040
   D16        3.12086  -0.00211   0.00000  -0.06278  -0.06347   3.05739
   D17        1.03783   0.00261   0.00000  -0.02027  -0.02070   1.01713
   D18       -0.97232  -0.01084   0.00000  -0.13309  -0.13502  -1.10734
   D19        0.99555   0.00037   0.00000  -0.01287  -0.01202   0.98353
   D20       -1.08748   0.00509   0.00000   0.02965   0.03076  -1.05672
   D21       -3.09763  -0.00836   0.00000  -0.08318  -0.08357   3.10199
   D22       -1.04427  -0.00007   0.00000  -0.01247  -0.01165  -1.05591
   D23       -3.12730   0.00466   0.00000   0.03005   0.03113  -3.09617
   D24        1.14574  -0.00879   0.00000  -0.08278  -0.08319   1.06255
   D25       -2.00853   0.01547   0.00000   0.09235   0.09177  -1.91676
   D26        2.07914  -0.01192   0.00000  -0.03908  -0.03844   2.04070
   D27        0.00000   0.00143   0.00000   0.02561   0.02555   0.02555
   D28       -3.12566  -0.00388   0.00000  -0.02843  -0.02754   3.12998
   D29        1.05505  -0.00008   0.00000  -0.01270  -0.01187   1.04318
   D30       -1.15972   0.01062   0.00000   0.06621   0.06645  -1.09327
   D31       -1.05269  -0.00768   0.00000  -0.05072  -0.05010  -1.10279
   D32        3.12801  -0.00389   0.00000  -0.03500  -0.03443   3.09358
   D33        0.91324   0.00681   0.00000   0.04392   0.04389   0.95714
   D34        0.96229  -0.00531   0.00000  -0.00260  -0.00340   0.95889
   D35       -1.14019  -0.00152   0.00000   0.01313   0.01227  -1.12792
   D36        2.92823   0.00918   0.00000   0.09205   0.09059   3.01882
   D37        2.01135   0.01176   0.00000   0.09575   0.09743   2.10878
   D38       -2.02772  -0.00324   0.00000   0.00434   0.00406  -2.02366
   D39        0.00000  -0.00188   0.00000   0.00570   0.00431   0.00430
   D40        1.09888  -0.00239   0.00000  -0.00028   0.00008   1.09895
   D41       -1.04308   0.00157   0.00000   0.03575   0.03601  -1.00707
   D42       -3.11698  -0.00026   0.00000   0.01736   0.01783  -3.09915
   D43       -3.05394  -0.00325   0.00000  -0.02207  -0.02240  -3.07634
   D44        1.08729   0.00071   0.00000   0.01395   0.01353   1.10083
   D45       -0.98661  -0.00112   0.00000  -0.00444  -0.00465  -0.99126
   D46       -0.95145   0.00062   0.00000  -0.01036  -0.01042  -0.96186
   D47       -3.09340   0.00458   0.00000   0.02566   0.02552  -3.06788
   D48        1.11588   0.00276   0.00000   0.00727   0.00734   1.12322
   D49        2.18207  -0.00161   0.00000  -0.01844  -0.01744   2.16463
   D50       -2.02702  -0.00121   0.00000   0.01269   0.01275  -2.01427
   D51        0.00000   0.00579   0.00000   0.05357   0.05252   0.05252
   D52       -3.13543   0.00104   0.00000   0.00463   0.00478  -3.13065
   D53       -1.03109  -0.00596   0.00000  -0.03016  -0.03158  -1.06267
   D54        1.02827   0.00464   0.00000   0.02096   0.02223   1.05050
         Item               Value     Threshold  Converged?
 Maximum Force            0.043689     0.000450     NO 
 RMS     Force            0.009411     0.000300     NO 
 Maximum Displacement     0.895916     0.001800     NO 
 RMS     Displacement     0.252659     0.001200     NO 
 Predicted change in Energy=-2.381412D-02
 GradGradGradGradGradGradGradGradGradGradGradGradGradGradGradGradGradGrad

                          Input orientation:                          
 ---------------------------------------------------------------------
 Center     Atomic      Atomic             Coordinates (Angstroms)
 Number     Number       Type             X           Y           Z
 ---------------------------------------------------------------------
      1          6           0       -0.064873   -0.019270    0.274926
      2          8           0       -0.378842   -0.131326    1.654177
      3          1           0        0.453389   -0.135753    2.139092
      4          1           0        0.537854   -0.879063   -0.053068
      5          1           0        0.472693    0.908097    0.075839
      6          6           0       -1.354024   -0.005584   -0.528058
      7          8           0       -2.412892   -0.086869    0.053454
      8          6           0       -1.389678    0.038440   -2.079852
      9          6           0       -0.105723    0.079525   -2.935747
     10          6           0       -0.434739   -0.002020   -4.427167
     11          6           0        0.826272    0.054084   -5.286201
     12          1           0        1.451648   -0.820267   -5.062344
     13          1           0        1.394207    0.970443   -5.088229
     14          8           0        0.397192    0.028688   -6.650548
     15          1           0        1.186762    0.053706   -7.200965
     16          1           0       -1.920740   -0.880048   -2.351953
     17          8           0       -2.197454    1.165927   -2.443397
     18          1           0       -3.022882    0.845275   -2.818451
     19          1           0        0.491383   -0.809717   -2.690910
     20          8           0        0.673401    1.264461   -2.722546
     21          1           0        1.545444    1.003024   -2.416126
     22          1           0       -1.072397    0.839085   -4.713680
     23          8           0       -1.068716   -1.266519   -4.666663
     24          1           0       -1.924046   -1.115113   -5.081732
 ---------------------------------------------------------------------
                    Distance matrix (angstroms):
                    1          2          3          4          5
     1  C    0.000000
     2  O    1.418967   0.000000
     3  H    1.938370   0.963208   0.000000
     4  H    1.100046   2.077048   2.316293   0.000000
     5  H    1.090239   2.072839   2.312360   1.792987   0.000000
     6  C    1.518843   2.393521   3.224496   2.137237   2.129883
     7  O    2.359410   2.588755   3.545115   3.057093   3.052386
     8  C    2.702483   3.872155   4.607247   2.943644   2.978545
     9  C    3.212453   4.602875   5.110083   3.105305   3.176594
    10  C    4.716649   6.082976   6.627399   4.565948   4.682821
    11  C    5.632553   7.046667   7.437073   5.323497   5.441124
    12  H    5.606058   6.995498   7.302450   5.092281   5.508768
    13  H    5.645519   7.058161   7.371770   5.432022   5.246016
    14  O    6.941037   8.342440   8.791358   6.661121   6.784051
    15  H    7.580294   8.994381   9.370720   7.237649   7.361505
    16  H    3.329515   4.357421   5.134194   3.365940   3.849696
    17  O    3.652654   4.666941   5.451656   4.168641   3.680043
    18  H    4.366490   5.286691   6.133849   4.826957   4.538712
    19  H    3.119360   4.483000   4.876945   2.639162   3.256706
    20  O    3.343329   4.712870   5.064043   3.426248   2.828116
    21  H    3.298479   4.642951   4.820728   3.184577   2.714719
    22  H    5.161208   6.478605   7.087934   5.221708   5.033046
    23  O    5.194480   6.458917   7.064965   4.900657   5.440241
    24  H    5.775048   6.980541   7.664962   5.603938   6.036412
                    6          7          8          9         10
     6  C    0.000000
     7  O    1.210770   0.000000
     8  C    1.552827   2.369317   0.000000
     9  C    2.713387   3.779687   1.543627   0.000000
    10  C    4.006014   4.898597   2.534450   1.529455   0.000000
    11  C    5.234231   6.246916   3.897608   2.528615   1.526838
    12  H    5.394002   6.453211   4.207823   2.785219   2.152077
    13  H    5.413000   6.484506   4.203449   2.770686   2.174334
    14  O    6.368110   7.270046   4.907572   3.749034   2.374126
    15  H    7.140504   8.099621   5.732720   4.456822   3.213460
    16  H    2.100582   2.580180   1.095301   2.134451   2.699193
    17  O    2.398403   2.801817   1.433840   2.407907   2.899415
    18  H    2.958876   3.080393   1.965672   3.018268   3.162967
    19  H    2.954672   4.060647   2.152011   1.098741   2.127126
    20  O    3.246420   4.365486   2.484447   1.434071   2.395345
    21  H    3.604027   4.791150   3.107803   1.961940   2.995917
    22  H    4.279276   5.037844   2.771056   2.161581   1.093689
    23  O    4.335828   5.047562   2.915051   2.394840   1.434658
    24  H    4.721432   5.259884   3.259987   3.055930   1.971159
                   11         12         13         14         15
    11  C    0.000000
    12  H    1.098042   0.000000
    13  H    1.096110   1.791818   0.000000
    14  O    1.430454   2.086863   2.078889   0.000000
    15  H    1.948403   2.325444   2.312378   0.962811   0.000000
    16  H    4.126558   4.326985   4.679786   4.967547   5.834499
    17  O    4.296586   4.911191   4.464681   5.072043   5.943434
    18  H    4.640232   5.275462   4.967719   5.200835   6.128140
    19  H    2.755691   2.558500   3.119487   4.048522   4.644313
    20  O    2.839139   3.228996   2.490475   4.127060   4.667516
    21  H    3.107253   3.214911   2.676578   4.494234   4.891271
    22  H    2.132827   3.040694   2.498335   2.562791   3.450682
    23  O    2.391401   2.589969   3.353760   2.786081   3.640448
    24  H    2.995510   3.388602   3.919233   3.026155   3.941372
                   16         17         18         19         20
    16  H    0.000000
    17  O    2.066627   0.000000
    18  H    2.099780   0.961672   0.000000
    19  H    2.436837   3.345785   3.886556   0.000000
    20  O    3.386122   2.886077   3.721212   2.082389   0.000000
    21  H    3.945188   3.746541   4.588719   2.114847   0.960573
    22  H    3.041851   2.554753   2.719617   3.042294   2.682045
    23  O    2.496635   3.483354   3.419696   2.558549   3.635989
    24  H    2.739883   3.498386   3.189514   3.412271   4.239677
                   21         22         23         24
    21  H    0.000000
    22  H    3.486935   0.000000
    23  O    4.129112   2.106132   0.000000
    24  H    4.860999   2.163252   0.962702   0.000000
 Stoichiometry    C6H12O6
 Framework group  C1[X(C6H12O6)]
 Deg. of freedom    66
 Full point group                 C1      NOp   1
 Largest Abelian subgroup         C1      NOp   1
 Largest concise Abelian subgroup C1      NOp   1
                         Standard orientation:                         
 ---------------------------------------------------------------------
 Center     Atomic      Atomic             Coordinates (Angstroms)
 Number     Number       Type             X           Y           Z
 ---------------------------------------------------------------------
      1          6           0       -2.665768   -0.990932   -0.286591
      2          8           0       -4.076848   -0.918148   -0.417061
      3          1           0       -4.400817   -1.816625   -0.541773
      4          1           0       -2.216744   -1.411780   -1.198384
      5          1           0       -2.388977   -1.596480    0.576728
      6          6           0       -2.113112    0.409285   -0.084487
      7          8           0       -2.877243    1.348193   -0.061674
      8          6           0       -0.595257    0.717161    0.027761
      9          6           0        0.480576   -0.387021   -0.050667
     10          6           0        1.887674    0.212050   -0.030135
     11          6           0        2.962103   -0.871074   -0.090773
     12          1           0        2.873153   -1.411276   -1.042596
     13          1           0        2.854411   -1.576160    0.741521
     14          8           0        4.224907   -0.204265   -0.007762
     15          1           0        4.910167   -0.878928   -0.055239
     16          1           0       -0.407904    1.399850   -0.808014
     17          8           0       -0.407204    1.428515    1.258414
     18          1           0       -0.183859    2.341579    1.055323
     19          1           0        0.366102   -0.901532   -1.014724
     20          8           0        0.391581   -1.334720    1.021950
     21          1           0        0.255180   -2.207615    0.644921
     22          1           0        2.036581    0.779673    0.892788
     23          8           0        2.030617    1.032881   -1.198059
     24          1           0        2.278938    1.922840   -0.927677
 ---------------------------------------------------------------------
 Rotational constants (GHZ):      1.9357429      0.4186667      0.3849317
 Standard basis: 6-311G(d,p) (5D, 7F)
 There are   288 symmetry adapted basis functions of A   symmetry.
 Integral buffers will be    131072 words long.
 Raffenetti 2 integral format.
 Two-electron integral symmetry is turned on.
   288 basis functions,   480 primitive gaussians,   300 cartesian basis functions
    48 alpha electrons       48 beta electrons
       nuclear repulsion energy       773.5012037745 Hartrees.
 NAtoms=   24 NActive=   24 NUniq=   24 SFac= 1.00D+00 NAtFMM=   50 NAOKFM=F Big=F
 One-electron integrals computed using PRISM.
 NBasis=   288 RedAO= T  NBF=   288
 NBsUse=   288 1.00D-06 NBFU=   288
 Initial guess read from the read-write file.
 B after Tr=     0.000000    0.000000    0.000000
         Rot=    1.000000    0.000000    0.000000    0.000000 Ang=   0.00 deg.
 Initial guess orbital symmetries:
       Occupied  (A) (A) (A) (A) (A) (A) (A) (A) (A) (A) (A) (A)
                 (A) (A) (A) (A) (A) (A) (A) (A) (A) (A) (A) (A)
                 (A) (A) (A) (A) (A) (A) (A) (A) (A) (A) (A) (A)
                 (A) (A) (A) (A) (A) (A) (A) (A) (A) (A) (A) (A)
       Virtual   (A) (A) (A) (A) (A) (A) (A) (A) (A) (A) (A) (A)
                 (A) (A) (A) (A) (A) (A) (A) (A) (A) (A) (A) (A)
                 (A) (A) (A) (A) (A) (A) (A) (A) (A) (A) (A) (A)
                 (A) (A) (A) (A) (A) (A) (A) (A) (A) (A) (A) (A)
                 (A) (A) (A) (A) (A) (A) (A) (A) (A) (A) (A) (A)
                 (A) (A) (A) (A) (A) (A) (A) (A) (A) (A) (A) (A)
                 (A) (A) (A) (A) (A) (A) (A) (A) (A) (A) (A) (A)
                 (A) (A) (A) (A) (A) (A) (A) (A) (A) (A) (A) (A)
                 (A) (A) (A) (A) (A) (A) (A) (A) (A) (A) (A) (A)
                 (A) (A) (A) (A) (A) (A) (A) (A) (A) (A) (A) (A)
                 (A) (A) (A) (A) (A) (A) (A) (A) (A) (A) (A) (A)
                 (A) (A) (A) (A) (A) (A) (A) (A) (A) (A) (A) (A)
                 (A) (A) (A) (A) (A) (A) (A) (A) (A) (A) (A) (A)
                 (A) (A) (A) (A) (A) (A) (A) (A) (A) (A) (A) (A)
                 (A) (A) (A) (A) (A) (A) (A) (A) (A) (A) (A) (A)
                 (A) (A) (A) (A) (A) (A) (A) (A) (A) (A) (A) (A)
                 (A) (A) (A) (A) (A) (A) (A) (A) (A) (A) (A) (A)
                 (A) (A) (A) (A) (A) (A) (A) (A) (A) (A) (A) (A)
                 (A) (A) (A) (A) (A) (A) (A) (A) (A) (A) (A) (A)
                 (A) (A) (A) (A) (A) (A) (A) (A) (A) (A) (A) (A)
 Harris functional with IExCor=  402 diagonalized for initial guess.
 ExpMin= 1.03D-01 ExpMax= 8.59D+03 ExpMxC= 1.30D+03 IAcc=1 IRadAn=         1 AccDes= 0.00D+00
 HarFok:  IExCor=  402 AccDes= 0.00D+00 IRadAn=         1 IDoV= 1
 ScaDFX=  1.000000  1.000000  1.000000  1.000000
 FoFCou: FMM=F IPFlag=           0 FMFlag=      100000 FMFlg1=           0
         NFxFlg=           0 DoJE=T BraDBF=F KetDBF=T FulRan=T
         Omega=  0.000000  0.000000  1.000000  0.000000  0.000000 ICntrl=     500 IOpCl=  0
         NMat0=    1 NMatS0=    1 NMatT0=    0 NMatD0=    1 NMtDS0=    0 NMtDT0=    0
         I1Cent=           4 NGrid=           0.
 Petite list used in FoFCou.
 Requested convergence on RMS density matrix=1.00D-08 within 128 cycles.
 Requested convergence on MAX density matrix=1.00D-06.
 Requested convergence on             energy=1.00D-06.
 No special actions if energy rises.
 Keep R1 ints in memory in canonical form, NReq=1033417600.
 Integral accuracy reduced to 1.0D-05 until final iterations.
 Initial convergence to 1.0D-05 achieved.  Increase integral accuracy.
 SCF Done:  E(RB3LYP) =  -687.330956206     A.U. after   13 cycles
             Convg  =    0.7568D-08             -V/T =  2.0031
 Calling FoFJK, ICntrl=      2127 FMM=F ISym2X=0 I1Cent= 0 IOpClX= 0 NMat=1 NMatS=1 NMatT=0.
 ***** Axes restored to original set *****
 -------------------------------------------------------------------
 Center     Atomic                   Forces (Hartrees/Bohr)
 Number     Number              X              Y              Z
 -------------------------------------------------------------------
      1        6          -0.000784057   -0.001958377    0.007105360
      2        8           0.000907394   -0.000542698   -0.002905012
      3        1          -0.001384397    0.000324272   -0.001415388
      4        1           0.002250703    0.001468925   -0.004393372
      5        1           0.004313689    0.003077412   -0.005916031
      6        6          -0.010368110   -0.005266376    0.010338263
      7        8           0.006247012    0.002594277   -0.009044992
      8        6          -0.004294731    0.007065224   -0.007445896
      9        6           0.004376289   -0.003545405    0.007764001
     10        6           0.005717864   -0.005009389   -0.006743897
     11        6          -0.001877128    0.002671288   -0.006559793
     12        1           0.000229434   -0.001069227    0.001419549
     13        1          -0.001562871   -0.001075964    0.003124306
     14        8           0.002098435    0.000103014    0.000617702
     15        1          -0.002147139   -0.000063721    0.000347051
     16        1           0.004093972   -0.001802239   -0.000086310
     17        8          -0.000610451    0.000874258   -0.001706580
     18        1           0.001095985    0.000675054    0.004354300
     19        1          -0.000595860   -0.000923875    0.000279327
     20        8          -0.002701413    0.001110001    0.007696086
     21        1          -0.001120231    0.000506782   -0.000308742
     22        1          -0.001154170   -0.001127813    0.001840792
     23        8          -0.007260274    0.002326751    0.003170253
     24        1           0.004530057   -0.000412175   -0.001530978
 -------------------------------------------------------------------
 Cartesian Forces:  Max     0.010368110 RMS     0.003977726

 GradGradGradGradGradGradGradGradGradGradGradGradGradGradGradGradGradGrad
 Berny optimization.
 Using GEDIIS/GDIIS optimizer.
 Internal  Forces:  Max     0.017382496 RMS     0.003773076
 Search for a local minimum.
 Step number   2 out of a maximum of  125
 All quantities printed in internal units (Hartrees-Bohrs-Radians)
 Mixed Optimization -- RFO/linear search
 Update second derivatives using D2CorX and points    1    2
 DE= -1.15D-02 DEPred=-2.38D-02 R= 4.84D-01
 Trust test= 4.84D-01 RLast= 4.39D-01 DXMaxT set to 3.00D-01
 ITU=  0  0
 Use linear search instead of GDIIS.
     Eigenvalues ---    0.00235   0.00296   0.00383   0.00401   0.00483
     Eigenvalues ---    0.00557   0.01325   0.01374   0.01377   0.01393
     Eigenvalues ---    0.01513   0.03853   0.04354   0.04447   0.04915
     Eigenvalues ---    0.05006   0.05314   0.05498   0.05905   0.06521
     Eigenvalues ---    0.07038   0.07274   0.07527   0.08955   0.10840
     Eigenvalues ---    0.11161   0.13530   0.13866   0.15860   0.16000
     Eigenvalues ---    0.16000   0.16000   0.16007   0.16053   0.17111
     Eigenvalues ---    0.19419   0.19483   0.20046   0.21747   0.22104
     Eigenvalues ---    0.22298   0.24700   0.28204   0.28668   0.29290
     Eigenvalues ---    0.29502   0.30687   0.33935   0.34108   0.34162
     Eigenvalues ---    0.34215   0.34237   0.34415   0.34442   0.38770
     Eigenvalues ---    0.41469   0.41790   0.41976   0.42362   0.44425
     Eigenvalues ---    0.51984   0.52840   0.52880   0.52904   0.53013
     Eigenvalues ---    0.87462
 RFO step:  Lambda=-5.99529076D-03 EMin= 2.35059651D-03
 Quartic linear search produced a step of -0.20197.
 Iteration  1 RMS(Cart)=  0.11836437 RMS(Int)=  0.00368613
 Iteration  2 RMS(Cart)=  0.00615353 RMS(Int)=  0.00048025
 Iteration  3 RMS(Cart)=  0.00001163 RMS(Int)=  0.00048020
 Iteration  4 RMS(Cart)=  0.00000000 RMS(Int)=  0.00048020
 Variable       Old X    -DE/DX   Delta X   Delta X   Delta X     New X
                                 (Linear)    (Quad)   (Total)
    R1        2.68146  -0.00408  -0.00208  -0.00302  -0.00510   2.67636
    R2        2.07879   0.00139  -0.00270   0.00869   0.00600   2.08478
    R3        2.06025   0.00582   0.00076   0.01161   0.01236   2.07261
    R4        2.87020   0.00049  -0.00083   0.00295   0.00212   2.87231
    R5        1.82020  -0.00191   0.00354  -0.01028  -0.00674   1.81346
    R6        2.28802  -0.00998   0.00809  -0.02603  -0.01794   2.27008
    R7        2.93442  -0.00619  -0.00962   0.00326  -0.00635   2.92807
    R8        2.91703  -0.00755  -0.00282  -0.01463  -0.01745   2.89958
    R9        2.06982  -0.00045  -0.00002  -0.00100  -0.00101   2.06881
   R10        2.70956   0.00027  -0.00443   0.00972   0.00528   2.71485
   R11        2.89025   0.00470   0.00408   0.00458   0.00866   2.89891
   R12        2.07632   0.00049  -0.00040   0.00194   0.00154   2.07786
   R13        2.71000   0.00036  -0.00362   0.00819   0.00457   2.71458
   R14        2.88531  -0.00207   0.00081  -0.00712  -0.00630   2.87900
   R15        2.06677  -0.00068   0.00077  -0.00313  -0.00236   2.06441
   R16        2.71111  -0.00075  -0.00279   0.00437   0.00158   2.71269
   R17        2.07500   0.00127  -0.00114   0.00524   0.00410   2.07910
   R18        2.07135  -0.00114  -0.00104  -0.00046  -0.00150   2.06985
   R19        2.70317  -0.00091  -0.00245   0.00340   0.00095   2.70411
   R20        1.81945  -0.00196   0.00364  -0.01056  -0.00692   1.81253
   R21        1.81730  -0.00286   0.00422  -0.01313  -0.00891   1.80839
   R22        1.81522  -0.00125   0.00433  -0.01097  -0.00664   1.80858
   R23        1.81924  -0.00343   0.00371  -0.01289  -0.00918   1.81006
    A1        1.92765   0.00260  -0.00660   0.03321   0.02663   1.95428
    A2        1.93239   0.00339  -0.00778   0.04026   0.03251   1.96491
    A3        1.90370   0.00027   0.00470  -0.00367   0.00104   1.90474
    A4        1.91795  -0.00269   0.00174  -0.03117  -0.02992   1.88803
    A5        1.89068  -0.00150   0.00399  -0.01844  -0.01465   1.87603
    A6        1.89051  -0.00225   0.00414  -0.02240  -0.01848   1.87203
    A7        1.87395  -0.00100   0.00045  -0.00563  -0.00518   1.86877
    A8        2.08032   0.01441   0.00760   0.03132   0.03686   2.11718
    A9        2.15086  -0.01738  -0.02178  -0.00859  -0.03234   2.11852
   A10        2.05080   0.00302   0.01435  -0.01762  -0.00517   2.04563
   A11        2.13620  -0.01570  -0.02436  -0.02646  -0.05120   2.08500
   A12        1.80865   0.00520   0.01230  -0.00365   0.00760   1.81625
   A13        1.86357   0.00171   0.00478  -0.01361  -0.00822   1.85534
   A14        1.86279   0.00119   0.01334  -0.01992  -0.00787   1.85493
   A15        1.88292   0.00867   0.00134   0.02271   0.02385   1.90677
   A16        1.89997  -0.00033  -0.00660   0.05061   0.04407   1.94404
   A17        1.93942   0.00049   0.01538  -0.02630  -0.01075   1.92866
   A18        1.88276   0.00143  -0.00477   0.00619   0.00205   1.88481
   A19        1.97301  -0.00801  -0.00905  -0.02291  -0.03113   1.94189
   A20        1.86612  -0.00142   0.00228   0.00322   0.00518   1.87130
   A21        1.88168   0.00666   0.00734   0.01865   0.02552   1.90720
   A22        1.91808   0.00113  -0.01229   0.02284   0.01060   1.92868
   A23        1.94873   0.00194   0.00068   0.01015   0.01066   1.95940
   A24        1.91758  -0.00134   0.00302  -0.01670  -0.01360   1.90398
   A25        1.88057  -0.00069   0.00772  -0.01362  -0.00609   1.87448
   A26        1.88166  -0.00022   0.00054  -0.00168  -0.00102   1.88064
   A27        1.87909   0.00125  -0.01974   0.04869   0.02886   1.90795
   A28        1.95677  -0.00086   0.00674  -0.02557  -0.01863   1.93814
   A29        1.90331  -0.00060   0.00731  -0.01860  -0.01137   1.89194
   A30        1.93588  -0.00298   0.00338  -0.02575  -0.02244   1.91344
   A31        1.86318  -0.00017   0.00727  -0.01477  -0.00749   1.85569
   A32        1.91111   0.00060  -0.00002   0.00112   0.00097   1.91208
   A33        1.92959   0.00094  -0.01000   0.02777   0.01787   1.94746
   A34        1.92040   0.00217  -0.00836   0.02968   0.02130   1.94170
   A35        1.87424   0.00171  -0.00125   0.01056   0.00931   1.88355
   A36        1.89678  -0.00053  -0.00321   0.00356   0.00035   1.89713
   A37        1.89206   0.00031  -0.00158   0.00446   0.00288   1.89494
   A38        1.90284  -0.00051  -0.00394   0.00504   0.00110   1.90393
    D1        1.06769   0.00041  -0.00414   0.01089   0.00675   1.07443
    D2       -1.06079  -0.00024   0.00274   0.00059   0.00336  -1.05743
    D3       -3.13947   0.00030  -0.00043   0.00601   0.00557  -3.13390
    D4       -0.00150   0.00090  -0.00567   0.05039   0.04541   0.04391
    D5       -3.08906  -0.00031  -0.01134  -0.06384  -0.07588   3.11825
    D6        2.09742   0.00331  -0.00847   0.07745   0.06946   2.16689
    D7       -0.99013   0.00210  -0.01414  -0.03678  -0.05184  -1.04197
    D8       -2.10607  -0.00203  -0.00153   0.01717   0.01657  -2.08949
    D9        1.08957  -0.00323  -0.00720  -0.09706  -0.10473   0.98484
   D10       -0.00573   0.00300  -0.00410   0.10683   0.10209   0.09636
   D11        2.09402  -0.00107   0.00743   0.05947   0.06630   2.16032
   D12       -2.18438   0.00158   0.00789   0.10903   0.11586  -2.06852
[...]
 61973,-0.00061480,0.00021865,-0.00007168,-0.00014253,0.00000495,0.0000
 1741,-0.00005643,0.00003474,0.00025250,0.00008891,0.00051110,-0.000054
 70,0.00010772,-0.01051878,-0.00832292,-0.00151962,0.00086207,0.0014869
 5,-0.00123850,-0.18219806,-0.12089613,-0.01927403,-0.01692221,-0.01416
 546,-0.00314588,-0.00086261,0.00002760,-0.00021756,-0.00005936,-0.0001
 0358,-0.00009140,0.00000116,0.00005263,0.00005041,0.00007708,-0.000003
 54,-0.00010907,0.00013026,0.00001991,0.00008508,0.00000238,-0.00001659
 ,0.00001288,0.19635732,-0.00114341,0.00015720,0.00003498,0.00012189,0.
 00001726,0.00003323,-0.00005756,-0.00003068,-0.00002742,0.00028913,-0.
 00000714,0.00045562,0.00022078,-0.00006202,0.00008901,-0.00008828,0.00
 210892,-0.00230641,0.00063953,-0.00046301,-0.00004655,-0.11490107,-0.1
 3986042,-0.01204368,0.00282073,0.00225992,-0.00117711,-0.00063714,-0.0
 0036145,-0.00043242,0.00017757,0.00003915,-0.00004364,-0.00001958,0.00
 005005,0.00005771,0.00001851,-0.00001396,-0.00003421,0.00002726,0.0000
 1251,0.00008618,-0.00000157,-0.00001238,0.00000705,0.12269447,0.175864
 13,0.00241172,0.00198150,-0.00055818,0.00028856,0.00021689,-0.00053470
 ,0.00012362,0.00008580,-0.00007151,-0.00050005,0.00054175,0.00041222,0
 .00043554,-0.00074849,-0.00092148,-0.02426069,-0.02062549,-0.00159021,
 0.00078329,0.00376672,-0.00198426,-0.02535581,-0.02422662,-0.05302415,
 0.01818191,0.01389649,0.00399001,0.00083074,-0.00003202,0.00085182,0.0
 0001570,-0.00003756,0.00000261,0.00002714,-0.00004300,-0.00003533,-0.0
 0009151,0.00001514,0.00010974,-0.00012747,-0.00001608,0.00002376,-0.00
 001219,0.00000958,-0.00001613,0.02022579,0.02010862,0.05231052,-0.0021
 5141,-0.00428060,-0.00003910,0.00082991,0.00063361,0.00004197,-0.00018
 144,-0.00013084,0.00007313,-0.00017103,0.00081214,-0.00167852,0.001196
 93,0.00079413,-0.00031325,-0.01071734,0.02415613,0.00040857,-0.0017821
 2,-0.00029454,-0.00700655,-0.08554738,0.06099180,-0.00647644,-0.006053
 15,0.03047429,-0.00113537,-0.00397234,-0.00077191,-0.00251443,0.000755
 04,0.00095237,-0.00102237,-0.00016404,-0.00010209,0.00033548,0.0002291
 0,-0.00006343,-0.00029648,0.00043656,-0.00041872,0.00083278,0.00003921
 ,0.00001912,-0.00004826,0.01449789,-0.01088637,0.00191555,0.23583930,-
 0.00092013,0.00040605,0.00042157,0.00010203,0.00056236,-0.00018609,-0.
 00013813,-0.00014244,0.00003483,0.00027614,0.00075185,0.00026458,-0.00
 009100,-0.00014514,0.00049841,0.00772459,-0.01459431,-0.00022398,0.001
 48312,0.00005121,0.00406021,0.03606160,-0.19682089,-0.01679869,0.00864
 017,-0.02303964,-0.00312717,0.00099928,-0.00279017,0.00351462,0.000100
 38,0.00072621,0.00055833,-0.00013860,0.00049634,0.00036068,-0.00007967
 ,-0.00000801,0.00014788,-0.00009049,0.00043827,-0.00088032,-0.00008576
 ,-0.00004122,-0.00000525,0.01629772,-0.04346176,0.00492793,-0.09383082
 ,0.31145461,0.00139018,-0.00287989,-0.00228019,-0.00176442,0.00201473,
 -0.00111120,0.00003008,-0.00008891,0.00080675,0.00036349,0.00171897,-0
 .00245685,-0.00122717,-0.00024874,-0.00040866,-0.01359678,0.03695891,0
 .00447183,-0.00779614,0.00067397,-0.00871788,-0.01814748,0.02165880,-0
 .08794675,0.00605077,-0.02314358,0.00158042,-0.00389726,0.00156030,-0.
 00021527,0.00002572,-0.00153240,0.00087672,0.00014444,-0.00006953,-0.0
 0039661,0.00020550,0.00002794,-0.00026755,0.00026811,0.00027438,-0.000
 34186,0.00009945,-0.00007828,0.00027438,0.00215255,-0.00093260,0.00431
 206,0.23531134,0.00493862,0.46462021,0.00015773,0.00014001,0.00004075,
 0.00004124,-0.00023493,0.00031581,0.00004684,-0.00001210,-0.00005905,-
 0.00014949,-0.00003830,-0.00004692,0.00005088,0.00011313,-0.00003013,-
 0.00017844,0.00132541,0.00144338,-0.00008312,0.00021868,-0.00046738,-0
 .01026346,0.00389363,-0.01600126,-0.00125117,-0.00017613,-0.00148135,-
 0.00114515,0.00335419,0.00357432,-0.00093655,-0.00063357,0.00034365,0.
 00014205,-0.00016365,-0.00033417,-0.00006814,0.00006797,0.00013409,-0.
 00004831,0.00010203,-0.00063583,0.00002688,0.00000638,0.00005083,0.001
 99141,-0.00083349,0.00108987,-0.14477038,0.01790720,-0.20677241,0.1595
 4293,-0.00009219,0.00010774,-0.00027835,-0.00003677,0.00025852,-0.0004
 2886,-0.00002268,0.00003539,0.00004781,-0.00001199,0.00048940,0.000553
 63,-0.00002194,0.00001249,0.00004467,0.00222028,-0.00760230,-0.0029232
 1,0.00211187,-0.00012039,0.00263781,0.02559609,-0.00958383,0.03842598,
 0.00094877,-0.00003460,0.00030400,0.00486001,0.00125998,-0.00048783,-0
 .00051833,-0.00032897,-0.00022397,0.00011566,-0.00010578,-0.00009558,-
 0.00021357,0.00005952,0.00026586,-0.00031196,-0.00014377,0.00036521,-0
 .00005128,0.00002501,-0.00008685,-0.00036503,0.00080055,0.00064082,-0.
 00811441,-0.04083356,-0.03248133,-0.02226182,0.05729060,-0.00063266,-0
 .00069038,-0.00042885,0.00027118,0.00014039,0.00064855,-0.00004727,-0.
 00003077,-0.00004754,0.00007739,0.00019562,-0.00048764,0.00021019,0.00
 002597,-0.00015842,-0.00087136,0.00074357,-0.00002515,0.00118270,-0.00
 066891,0.00032218,-0.00316204,0.00325938,-0.00255408,0.00013214,-0.002
 25066,0.00290503,0.00888133,-0.00124202,0.00080589,-0.00087788,-0.0000
 8687,-0.00023942,0.00016220,0.00010133,0.00000498,-0.00042208,0.000063
 53,0.00052100,-0.00046687,0.00002675,0.00015500,-0.00012101,0.00006530
 ,-0.00020163,0.00031042,-0.00269945,0.00059005,-0.22038998,0.00900670,
 -0.36071378,0.22025534,-0.00929164,0.36250684,-0.00000322,-0.00007653,
 0.00009570,0.00007109,-0.00000671,0.00014460,-0.00000351,-0.00000947,0
 .00000189,-0.00006732,-0.00002869,-0.00007425,0.00004060,0.00004123,-0
 .00004359,-0.00118510,0.00054120,-0.00008050,0.00110732,-0.00025069,0.
 00013678,-0.00088015,0.01981288,0.00230550,-0.04835703,0.01891959,0.00
 184971,0.00086951,0.00812132,0.00115067,0.00024554,-0.00054038,0.00056
 559,0.00022949,-0.00010268,-0.00002450,0.00004103,-0.00010547,-0.00025
 919,-0.00010024,0.00013094,0.00001757,0.00000185,-0.00005045,0.0000470
 2,-0.00023787,0.00089535,-0.00024429,-0.00340510,0.00264672,0.00399572
 ,0.00063903,-0.00013117,0.00037862,0.06479354,-0.00035905,-0.00012093,
 0.00010719,0.00002230,0.00004707,-0.00019372,-0.00002777,-0.00000734,0
 .00000338,0.00000880,0.00004765,0.00002479,-0.00003147,0.00002503,0.00
 007469,0.00126265,-0.00113616,0.00024610,-0.00012732,0.00140746,0.0009
 6562,0.00029014,-0.00843042,0.00014909,0.01685079,-0.28511989,-0.02550
 164,-0.00054337,-0.01548948,-0.00073697,0.00008269,-0.00037555,-0.0014
 5154,-0.00014145,0.00112747,0.00088745,0.00010433,0.00003211,0.0000177
 6,0.00012214,0.00080755,-0.00034020,-0.00007820,-0.00002580,0.00009633
 ,0.00069479,0.00113525,-0.00036976,0.00219596,0.00030937,-0.00117324,-
 0.00046514,-0.00016915,-0.00014248,-0.00734399,0.31303898,-0.00018999,
 -0.00024671,-0.00001920,-0.00000810,0.00006478,-0.00012677,-0.00002375
 ,0.00000297,0.00000904,0.00004457,0.00005318,0.00003813,-0.00005641,0.
 00001537,0.00009599,0.00107119,-0.00069966,0.00091308,-0.00096781,0.00
 113891,-0.00054991,0.00351631,-0.02263718,-0.00093092,0.00250964,-0.02
 449802,-0.05531148,-0.00017914,0.03045270,0.00180620,-0.00009543,0.001
 99240,0.00100060,-0.00016081,-0.00060107,-0.00030084,0.00016192,-0.000
 06686,-0.00011286,0.00003627,-0.00059468,0.00021446,0.00007046,-0.0000
 8194,-0.00000071,0.00015655,0.00024246,0.00132790,0.00413756,-0.002594
 78,-0.00346497,-0.00033923,0.00015378,-0.00067722,-0.00238830,0.028012
 97,0.05804693,0.00001491,-0.00019591,-0.00023440,0.00048250,0.00016365
 ,0.00131320,-0.00010803,-0.00015326,-0.00003007,0.00006225,0.00006491,
 -0.00008253,0.00035959,0.00002634,-0.00009553,-0.00704320,0.00327100,-
 0.00824538,0.00557684,-0.00351423,0.00226968,-0.03533647,-0.01827036,-
 0.00098713,-0.18779789,-0.06446641,-0.01584373,-0.02532063,-0.00603239
 ,-0.01022566,-0.00218250,-0.00088612,0.00032678,-0.00005848,0.00023603
 ,-0.00022122,0.00080004,0.00042145,-0.00070759,0.00147498,0.00026690,-
 0.00041743,-0.00012991,-0.00012741,-0.00008556,-0.00448971,0.00037848,
 0.00558174,-0.00006217,0.00518614,0.00045542,0.00043360,-0.00067199,0.
 00035942,-0.01555332,-0.01364386,-0.00647984,0.34540574,-0.00012762,0.
 00079849,0.00016162,0.00019072,0.00014777,0.00003320,-0.00007985,-0.00
 006134,0.00001647,-0.00031704,0.00029561,0.00043015,0.00009235,0.00003
 021,-0.00000827,-0.00054129,-0.00135209,0.00006556,-0.00251815,0.00046
 487,0.00327673,-0.00115877,0.00250283,0.00409877,-0.03733386,-0.102646
 60,0.01155163,0.01174173,0.00633629,0.00112863,0.00031304,0.00016808,0
 .00052306,0.00017135,0.00041392,0.00067125,0.00007328,-0.00023114,-0.0
 0024295,-0.00018220,0.00051120,-0.00033263,-0.00004778,-0.00012866,0.0
 0005756,0.00145222,0.00103292,-0.00051193,-0.00185734,0.00420237,0.000
 78321,-0.00012080,-0.00000192,0.00037977,-0.04091049,-0.00853500,-0.00
 978126,0.02371462,0.24274481,0.00085386,-0.00132992,0.00123942,-0.0000
 2579,0.00034779,-0.00021771,0.00004097,-0.00009426,0.00024396,-0.00018
 016,0.00006662,-0.00033406,0.00016377,0.00004108,-0.00028300,-0.009056
 31,0.00667592,-0.00116885,0.01190193,0.00081904,-0.00665005,0.01790056
 ,0.01116536,0.00939235,-0.04488336,-0.00414144,-0.09021740,-0.03605935
 ,-0.01347458,-0.00671740,0.00240038,-0.00124994,0.00000584,-0.00032571
 ,-0.00015172,-0.00006587,-0.00170956,-0.00015361,-0.00077610,-0.001055
 02,0.00069233,-0.00097470,0.00004686,-0.00003205,0.00037176,0.00411246
 ,-0.00106924,-0.00327895,-0.00072311,-0.00024625,0.00262890,0.00052607
 ,-0.00040357,-0.00161101,-0.00852779,-0.00436661,0.00121279,0.16786066
 ,-0.21083394,0.42954983,0.00023924,-0.00118499,0.00066335,-0.00026644,
 0.00005983,-0.00072041,0.00009450,-0.00000015,0.00012370,0.00008471,-0
 .00013079,-0.00034773,0.00002042,0.00003083,-0.00014447,-0.00619102,0.
 00380870,0.00250421,0.00353331,-0.00051110,-0.00274382,0.00004068,0.00
 246116,-0.00097282,-0.01970205,0.02003561,-0.03658380,-0.00579789,-0.0
 0363261,0.00046129,-0.00009937,-0.00001265,0.00010591,0.00010290,0.000
 08522,0.00000429,0.00028612,-0.00017136,-0.00033799,0.00008389,0.00001
 394,0.00021763,0.00003855,-0.00000043,-0.00002394,0.00053181,-0.000251
 28,-0.00008795,0.00045076,-0.00076006,0.00077228,0.00001038,-0.0001041
 6,-0.00044573,0.00135856,-0.00070334,0.00007200,-0.07577550,0.04237307
 ,-0.09592137,0.10235883,0.00065534,-0.00084828,0.00007315,-0.00019043,
 -0.00002331,0.00018048,0.00008289,0.00001677,0.00001729,0.00026310,-0.
 00019701,-0.00029182,0.00003825,-0.00006204,-0.00006670,-0.00232239,0.
 00307656,-0.00248565,0.00297461,-0.00315189,-0.00026346,0.00010716,0.0
 0005651,0.00163319,-0.00796544,0.00683756,-0.01483553,-0.00222815,-0.0
 0194902,0.00071399,0.00003712,0.00014573,-0.00001685,-0.00007337,-0.00
 008256,-0.00008681,-0.00009471,0.00002539,0.00001459,0.00003450,-0.000
 08967,-0.00005852,0.00000647,0.00002624,-0.00001411,-0.00041571,-0.000
 17865,0.00034772,0.00001887,-0.00024772,0.00002514,0.00005927,-0.00007
 196,-0.00002075,-0.00112418,0.00030418,-0.00126012,0.07308653,-0.14854
 712,0.21544249,-0.06208413,0.14348308,-0.00026149,0.00162964,-0.000554
 34,-0.00004418,-0.00020919,0.00019208,-0.00004005,0.00005205,-0.000156
 32,-0.00014791,0.00007991,0.00051816,-0.00018768,-0.00005698,0.0002075
 5,0.01000380,-0.00544188,0.00245251,-0.00691150,0.00215732,-0.00313728
 ,0.00007682,-0.00041070,0.00099840,-0.00796120,0.00451323,-0.00878809,
 -0.00172310,-0.00131030,0.00042642,-0.00011492,0.00024950,-0.00036267,
 -0.00009748,-0.00008627,-0.00007897,-0.00001406,0.00009147,-0.00026732
 ,0.00024057,-0.00019782,0.00038509,-0.00000831,0.00001694,-0.00007565,
 0.00004453,0.00039643,-0.00094118,0.00040034,-0.00003204,-0.00141448,-
 0.00020337,0.00021286,0.00027646,0.00200416,0.00128077,0.00062028,-0.1
 3082826,0.19483250,-0.32588877,0.13492486,-0.19793455,0.33580161,0.000
 00737,-0.00006969,0.00006043,-0.00000962,0.00002112,-0.00002621,0.0000
 0067,-0.00000240,0.00000932,0.00001691,0.00000636,-0.00000247,-0.00000
 606,-0.00000984,0.00000802,-0.00003680,0.00021041,0.00005868,-0.000031
 88,-0.00008862,-0.00015919,-0.00012488,-0.00052922,0.00031196,0.002262
 98,0.00629312,-0.00001645,-0.05297424,-0.04223011,-0.00243851,0.004041
 47,0.01868001,0.00268177,-0.00096470,0.00164243,0.00358145,0.00071957,
 0.00009900,-0.00082121,0.00050466,-0.00126775,-0.00091972,-0.00006556,
 0.00005954,-0.00031101,0.00003298,0.00025406,-0.00016200,0.00053771,0.
 00060017,-0.00026330,-0.00126911,-0.00107557,-0.00026834,-0.00056865,0
 .00058933,-0.00132825,0.00047240,0.00072006,-0.00007265,-0.00012448,0.
 00010412,0.00005610,0.07652965,0.00001881,-0.00004116,0.00008367,0.000
 00336,0.00004738,0.00001390,-0.00001000,-0.00001146,0.00001212,0.00000
 156,0.00002330,0.00002998,-0.00000884,0.00000159,0.00000590,-0.0001738
 1,-0.00005625,-0.00011273,0.00013044,0.00015140,0.00008553,0.00117474,
 -0.00151765,-0.00049417,-0.00281172,-0.01840902,0.00150919,-0.04303708
 ,-0.28833482,-0.01717080,-0.00101202,-0.01560961,-0.00106685,0.0013973
 2,0.00016345,-0.00153222,0.00047148,0.00033274,-0.00029916,-0.00031049
 ,0.00175270,0.00037302,-0.00000583,0.00038340,0.00017270,0.00009415,0.
 00008377,-0.00006653,0.00106439,0.00166707,-0.00150938,-0.00073530,-0.
 00037259,-0.00028919,0.00043655,-0.00031446,0.00238140,-0.00035681,0.0
 0205523,-0.00128076,-0.00003616,0.00055259,0.00003821,0.05206090,0.312
 14110,-0.00000096,0.00007578,-0.00009782,0.00002240,-0.00005221,0.0000
 3180,0.00000806,0.00000381,-0.00001677,0.00000170,-0.00003401,-0.00003
 817,0.00002483,0.00000003,-0.00002550,-0.00037262,0.00019287,-0.000184
 48,0.00024646,-0.00036768,-0.00020136,-0.00104033,0.00147457,0.0014361
 3,0.00389764,0.03080081,-0.00045414,-0.00239936,-0.01736899,-0.0544463
 9,-0.00215414,-0.02819810,-0.00343025,0.00204384,-0.00173479,-0.003837
 17,-0.00014480,0.00064410,0.00081439,-0.00054981,0.00107538,0.00244933
 ,0.00012433,0.00028824,0.00052265,-0.00007898,-0.00026738,0.00008801,0
 .00027616,-0.00109182,0.00019929,0.00083035,0.00005876,-0.00023742,-0.
 00149214,0.00179809,-0.00459288,0.00140325,-0.00125755,0.00192857,0.00
 041019,-0.00007196,0.00004916,0.00394826,0.02025056,0.05721540,-0.0002
 4292,-0.00032571,-0.00009416,0.00018371,-0.00003228,-0.00007081,-0.000
 06437,-0.00003112,-0.00000266,-0.00005578,-0.00005003,-0.00016000,0.00
 010471,0.00008250,-0.00008672,-0.00048342,0.00074255,0.00034639,0.0012
 3590,-0.00047599,-0.00043711,-0.00194377,0.00246394,0.00136302,-0.0209
 6240,-0.00361429,-0.00468423,-0.19155628,-0.02903335,0.00993172,-0.049
 43002,-0.00227533,-0.00234275,0.00240969,0.00034938,-0.00094625,-0.001
 75127,0.00222409,0.00693036,0.00332450,-0.00042458,-0.00014077,0.00019
 720,-0.00016474,-0.00144412,0.00027387,0.00011816,-0.00086538,0.003698
 04,-0.00223818,0.00095693,-0.00330792,-0.00016018,-0.00354847,0.000770
 93,0.00100425,0.00042619,0.00006805,0.00311506,-0.00506778,-0.00067491
 ,-0.00065281,0.00091720,-0.02912472,-0.00774069,-0.00476334,0.33982585
 ,-0.00001325,-0.00022377,0.00028821,-0.00008327,0.00017671,-0.00018988
 ,-0.00001303,-0.00002989,0.00006148,0.00009209,0.00010733,0.00007788,-
 0.00003548,-0.00004090,0.00004301,0.00039203,0.00047713,-0.00021974,-0
 .00047443,0.00014919,-0.00017881,0.00054245,-0.00278037,0.00022328,0.0
 1299572,0.00396870,-0.00099149,-0.01857359,-0.07493976,0.00634123,0.01
 518764,0.00362715,0.00306601,-0.00067511,0.00269352,0.00251088,0.00240
 730,0.00073045,-0.00342675,-0.00027622,0.00261140,0.00083023,-0.000679
 09,0.00001618,0.00005049,0.00054555,0.00072794,0.00020530,-0.00096268,
 0.00192079,-0.00458547,-0.00087159,-0.00252955,0.00289458,-0.00067877,
 0.00154812,-0.00135107,0.00159346,-0.00014139,0.00347789,0.00074488,0.
 00075616,0.00010164,-0.03516866,0.00543089,-0.00512897,0.01850558,0.09
 400717,0.00023919,-0.00032662,0.00045655,-0.00015531,0.00021591,-0.000
 77558,0.00000625,0.00001444,0.00013531,0.00001899,0.00021773,0.0000587
 7,-0.00005830,-0.00004139,0.00000064,-0.00018285,-0.00037017,0.0022704
 3,-0.00054102,0.00065083,-0.00099567,0.00094054,-0.00336316,-0.0015215
 6,-0.03450240,-0.00842908,-0.00081052,-0.03485711,0.00301516,-0.096999
 84,0.02587618,0.00510196,0.00128697,-0.00093070,0.00116335,0.00189149,
 0.00307398,-0.00209188,-0.00450976,0.00617333,-0.00024934,-0.00162482,
 0.00204370,0.00015465,0.00140440,-0.00080193,-0.00033761,-0.00096284,-
 0.00217247,-0.00320092,-0.01041840,-0.00186944,0.00257855,0.00021599,0
 .00045988,0.00070180,0.00069483,-0.00573340,0.00475543,-0.00854895,-0.
 00187062,-0.00102729,-0.00028763,-0.00545198,-0.00148770,0.00279230,0.
 08958988,-0.11559385,0.57813367,0.00002369,0.00000776,-0.00001477,-0.0
 0000589,-0.00000996,0.00015873,0.00001129,-0.00000355,-0.00001031,0.00
 000580,-0.00003112,-0.00000903,0.00000018,-0.00000325,-0.00000056,-0.0
 0026813,0.00029819,-0.00037400,0.00022757,-0.00013979,0.00013125,-0.00
 035963,0.00006695,0.00064086,-0.00659977,-0.00264668,0.00177072,-0.014
 71083,0.01147622,-0.04497503,-0.00323377,0.00296539,-0.00362033,-0.000
 15305,-0.00015240,0.00058446,0.00075556,-0.00040189,-0.00027682,0.0006
 6538,-0.00075723,-0.00138497,0.00212498,-0.00010238,0.00089389,0.00022
 002,0.00016380,-0.00020382,0.00046743,0.00034759,0.00124298,0.00038827
 ,-0.00168762,-0.00096725,0.00019304,0.00023681,0.00001441,-0.00129309,
 0.00123771,-0.00219957,-0.00060300,-0.00031690,-0.00012486,0.00017435,
 -0.00061495,-0.00024097,-0.05249470,0.00549845,-0.03929437,0.07446429,
 -0.00001856,-0.00002255,-0.00003072,-0.00000080,-0.00000910,0.00001775
 ,0.00000037,0.00000863,-0.00000397,-0.00000259,0.00001222,-0.00000870,
 0.00000011,0.00000614,0.00001160,0.00004325,0.00010964,-0.00014626,0.0
 0007696,-0.00010684,0.00006650,0.00022525,-0.00060441,0.00062457,0.000
 65080,0.00014787,0.00025809,-0.00227886,0.00158926,-0.00451328,0.00119
 718,0.00168562,0.00120844,0.00057751,-0.00080363,-0.00004664,-0.000423
 64,-0.00029024,0.00046433,-0.00203073,-0.00228008,-0.00047129,0.000887
 19,-0.00039463,-0.00005179,0.00015972,0.00016190,-0.00006678,-0.000399
 07,-0.00086163,-0.00191164,-0.00064107,0.00155916,0.00051023,-0.000186
 10,-0.00010606,-0.00009759,-0.00009076,-0.00005933,0.00009937,-0.00003
 001,0.00016848,0.00002728,-0.00089876,-0.00011958,-0.00108955,0.018613
 76,-0.03826320,0.11794920,-0.01543116,0.03847234,-0.00003756,0.0000500
 6,-0.00011703,0.00004849,-0.00002672,0.00018233,-0.00000603,0.00000098
 ,-0.00002932,-0.00001195,-0.00001082,-0.00001321,0.00002171,0.00000481
 ,-0.00000534,-0.00009837,-0.00001788,-0.00028260,0.00011916,-0.0001006
 4,0.00021407,0.00021484,0.00014357,0.00015428,-0.00019745,-0.00134784,
 0.00039669,-0.00575429,0.00264252,-0.00574931,0.00439652,-0.00142302,0
 .00433341,-0.00027261,0.00033144,-0.00045706,-0.00030727,0.00047906,-0
 .00142268,-0.00149584,0.00025350,-0.00121786,-0.00082949,-0.00009711,-
 0.00067450,-0.00005657,-0.00009357,-0.00009978,0.00008348,-0.00034704,
 0.00038391,-0.00036392,0.00041146,-0.00156981,-0.00001888,-0.00008987,
 0.00010755,0.00064759,0.00020298,0.00015940,-0.00005908,-0.00001390,0.
 00002497,0.00152531,0.00035331,0.00003531,-0.08580713,0.11149391,-0.46
 188579,0.08825936,-0.11279917,0.46753236\\0.00001541,-0.00000703,-0.00
 000021,-0.00000260,0.00000514,-0.00001138,-0.00000163,0.00000029,0.000
 00244,0.00000174,0.00000510,0.00000235,-0.00000776,0.00001249,-0.00000
 427,0.00000544,0.00000082,0.00000163,-0.00000318,-0.00000717,0.0000026
 2,-0.00000578,-0.00000361,0.00000080,-0.00000589,-0.00000113,-0.000003
 40,0.00000363,0.00000435,0.00000648,-0.00000099,-0.00001127,0.00000084
 ,-0.00000480,-0.00000060,-0.00000128,-0.00000118,-0.00000564,0.0000004
 5,0.00000774,0.00000443,-0.00000185,-0.00000167,-0.00000621,-0.0000004
 0,-0.00000659,0.00000929,-0.00000127,0.00000730,0.00000272,0.00001031,
 -0.00000081,0.00001027,-0.00000839,-0.00000471,-0.00000224,-0.00000031
 ,-0.00000092,-0.00000602,-0.00000067,-0.00000075,-0.00001182,0.0000083
 9,0.00000515,-0.00000239,-0.00000129,-0.00000022,0.00000196,0.00000103
 ,0.00000307,0.00000830,-0.00000263\\\@


 Children are likely to live up to what you believe of them.
 -- Lady Bird Johnson
 Job cpu time:  0 days  0 hours 25 minutes 23.4 seconds.
 File lengths (MBytes):  RWF=    219 Int=      0 D2E=      0 Chk=      7 Scr=      1
 Normal termination of Gaussian 09 at Mon Jan 22 23:41:22 2018.
