 Entering Gaussian System, Link 0=g09
 Input=r-enan_rotated.inp
 Output=r-enan_rotated.log
 Initial command:
 /usr/local/g09/l1.exe /home/g09scr/Gau-17612.inp -scrdir=/home/g09scr/
 Entering Link 1 = /usr/local/g09/l1.exe PID=     17614.
  
 Copyright (c) 1988,1990,1992,1993,1995,1998,2003,2009,2010,
            Gaussian, Inc.  All Rights Reserved.
  
 This is part of the Gaussian(R) 09 program.  It is based on
 the Gaussian(R) 03 system (copyright 2003, Gaussian, Inc.),
 the Gaussian(R) 98 system (copyright 1998, Gaussian, Inc.),
 the Gaussian(R) 94 system (copyright 1995, Gaussian, Inc.),
 the Gaussian 92(TM) system (copyright 1992, Gaussian, Inc.),
 the Gaussian 90(TM) system (copyright 1990, Gaussian, Inc.),
 the Gaussian 88(TM) system (copyright 1988, Gaussian, Inc.),
 the Gaussian 86(TM) system (copyright 1986, Carnegie Mellon
 University), and the Gaussian 82(TM) system (copyright 1983,
 Carnegie Mellon University). Gaussian is a federally registered
 trademark of Gaussian, Inc.
  
 This software contains proprietary and confidential information,
 including trade secrets, belonging to Gaussian, Inc.
  
 This software is provided under written license and may be
 used, copied, transmitted, or stored only in accord with that
 written license.
  
 The following legend is applicable only to US Government
 contracts under FAR:
  
                    RESTRICTED RIGHTS LEGEND
  
 Use, reproduction and disclosure by the US Government is
 subject to restrictions as set forth in subparagraphs (a)
 and (c) of the Commercial Computer Software - Restricted
 Rights clause in FAR 52.227-19.
  
 Gaussian, Inc.
 340 Quinnipiac St., Bldg. 40, Wallingford CT 06492
  
  
 ---------------------------------------------------------------
 Warning -- This program may not be used in any manner that
 competes with the business of Gaussian, Inc. or will provide
 assistance to any competitor of Gaussian, Inc.  The licensee
 of this program is prohibited from giving any competitor of
 Gaussian, Inc. access to this program.  By using this program,
 the user acknowledges that Gaussian, Inc. is engaged in the
 business of creating and licensing software in the field of
 computational chemistry and represents and warrants to the
 licensee that it is not a competitor of Gaussian, Inc. and that
 it will not use this program in any manner prohibited above.
 ---------------------------------------------------------------
  

 Cite this work as:
 Gaussian 09, Revision B.01,
 M. J. Frisch, G. W. Trucks, H. B. Schlegel, G. E. Scuseria, 
 M. A. Robb, J. R. Cheeseman, G. Scalmani, V. Barone, B. Mennucci, 
 G. A. Petersson, H. Nakatsuji, M. Caricato, X. Li, H. P. Hratchian, 
 A. F. Izmaylov, J. Bloino, G. Zheng, J. L. Sonnenberg, M. Hada, 
 M. Ehara, K. Toyota, R. Fukuda, J. Hasegawa, M. Ishida, T. Nakajima, 
 Y. Honda, O. Kitao, H. Nakai, T. Vreven, J. A. Montgomery, Jr., 
 J. E. Peralta, F. Ogliaro, M. Bearpark, J. J. Heyd, E. Brothers, 
 K. N. Kudin, V. N. Staroverov, T. Keith, R. Kobayashi, J. Normand, 
 K. Raghavachari, A. Rendell, J. C. Burant, S. S. Iyengar, J. Tomasi, 
 M. Cossi, N. Rega, J. M. Millam, M. Klene, J. E. Knox, J. B. Cross, 
 V. Bakken, C. Adamo, J. Jaramillo, R. Gomperts, R. E. Stratmann, 
 O. Yazyev, A. J. Austin, R. Cammi, C. Pomelli, J. W. Ochterski, 
 R. L. Martin, K. Morokuma, V. G. Zakrzewski, G. A. Voth, 
 P. Salvador, J. J. Dannenberg, S. Dapprich, A. D. Daniels, 
 O. Farkas, J. B. Foresman, J. V. Ortiz, J. Cioslowski, 
 and D. J. Fox, Gaussian, Inc., Wallingford CT, 2010.
 
 ******************************************
 Gaussian 09:  EM64L-G09RevB.01 12-Aug-2010
                 5-Jan-2018 
 ******************************************
 %nproc=4
 Will use up to    4 processors via shared memory.
 %mem=60gb
 ----------------------
 #B3LYP/3-21G fopt test
 ----------------------
 1/14=-1,18=20,19=15,26=3,38=1/1,3;
 2/9=110,12=2,14=103,17=6,18=5,40=1/2;
 3/5=5,11=2,16=1,25=1,30=1,71=1,74=-5/1,2,3;
 4//1;
 5/5=2,38=5/2;
 6/7=2,8=2,9=2,10=2,28=1/1;
 7//1,2,3,16;
 1/14=-1,18=20,19=15/3(2);
 2/9=110/2;
 99//99;
 2/9=110/2;
 3/5=5,11=2,16=1,25=1,30=1,71=1,74=-5/1,2,3;
 4/5=5,16=3/1;
 5/5=2,38=5/2;
 7//1,2,3,16;
 1/14=-1,18=20,19=15/3(-5);
 2/9=110/2;
 6/7=2,8=2,9=2,10=2,19=2,28=1/1;
 99/9=1/99;
 ---------------------------------------
 SymmetricEnantiomers/r-enan_rotated.xyz
 ---------------------------------------
 Symbolic Z-matrix:
 Charge =  0 Multiplicity = 1
 C                    -0.9883    0.09507   0.25356 
 I                     0.9807    0.06907   0.93156 
 H                    -1.5553    0.97207   0.57456 
 F                    -1.6323   -1.01493   0.70056 
 Br                   -1.0013    0.10507  -1.69144 
 

 GradGradGradGradGradGradGradGradGradGradGradGradGradGradGradGradGradGrad
 Berny optimization.
 Initialization pass.
                           ----------------------------
                           !    Initial Parameters    !
                           ! (Angstroms and Degrees)  !
 --------------------------                            --------------------------
 ! Name  Definition              Value          Derivative Info.                !
 --------------------------------------------------------------------------------
 ! R1    R(1,2)                  2.0826         estimate D2E/DX2                !
 ! R2    R(1,3)                  1.0925         estimate D2E/DX2                !
 ! R3    R(1,4)                  1.3589         estimate D2E/DX2                !
 ! R4    R(1,5)                  1.9451         estimate D2E/DX2                !
 ! A1    A(2,1,3)              113.893          estimate D2E/DX2                !
 ! A2    A(2,1,4)              109.3156         estimate D2E/DX2                !
 ! A3    A(2,1,5)              109.3856         estimate D2E/DX2                !
 ! A4    A(3,1,4)              108.2452         estimate D2E/DX2                !
 ! A5    A(3,1,5)              106.6307         estimate D2E/DX2                !
 ! A6    A(4,1,5)              109.2663         estimate D2E/DX2                !
 ! D1    D(2,1,4,3)            124.5728         estimate D2E/DX2                !
 ! D2    D(2,1,5,3)           -123.5883         estimate D2E/DX2                !
 ! D3    D(2,1,5,4)            119.6332         estimate D2E/DX2                !
 ! D4    D(3,1,5,4)           -116.7785         estimate D2E/DX2                !
 --------------------------------------------------------------------------------
 Trust Radius=3.00D-01 FncErr=1.00D-07 GrdErr=1.00D-06
 Number of steps in this run=     24 maximum allowed number of steps=    100.
 GradGradGradGradGradGradGradGradGradGradGradGradGradGradGradGradGradGrad

                          Input orientation:                          
 ---------------------------------------------------------------------
 Center     Atomic      Atomic             Coordinates (Angstroms)
 Number     Number       Type             X           Y           Z
 ---------------------------------------------------------------------
      1          6           0       -0.988297    0.095066    0.253557
      2         53           0        0.980703    0.069066    0.931557
      3          1           0       -1.555300    0.972066    0.574557
      4          9           0       -1.632300   -1.014930    0.700557
      5         35           0       -1.001300    0.105066   -1.691440
 ---------------------------------------------------------------------
                    Distance matrix (angstroms):
                    1          2          3          4          5
     1  C    0.000000
     2  I    2.082624   0.000000
     3  H    1.092549   2.715542   0.000000
     4  F    1.358911   2.838343   1.992475   0.000000
     5  Br   1.945066   3.287818   2.488644   2.715548   0.000000
 Stoichiometry    CHBrFI
 Framework group  C1[X(CHBrFI)]
 Deg. of freedom     9
 Full point group                 C1      NOp   1
 Largest Abelian subgroup         C1      NOp   1
 Largest concise Abelian subgroup C1      NOp   1
                         Standard orientation:                         
 ---------------------------------------------------------------------
 Center     Atomic      Atomic             Coordinates (Angstroms)
 Number     Number       Type             X           Y           Z
 ---------------------------------------------------------------------
      1          6           0        0.398567    0.771776    0.453937
      2         53           0       -1.387675   -0.189546   -0.017785
      3          1           0        0.511291    0.999589    1.516508
      4          9           0        0.479661    1.936265   -0.241786
      5         35           0        1.895060   -0.371733   -0.032041
 ---------------------------------------------------------------------
 Rotational constants (GHZ):      5.0200170      0.9364722      0.8042041
 Standard basis: 3-21G (6D, 7F)
 There are    76 symmetry adapted basis functions of A   symmetry.
 Integral buffers will be    131072 words long.
 Raffenetti 2 integral format.
 Two-electron integral symmetry is turned on.
    76 basis functions,   177 primitive gaussians,    76 cartesian basis functions
    52 alpha electrons       52 beta electrons
       nuclear repulsion energy       630.9081321453 Hartrees.
 NAtoms=    5 NActive=    5 NUniq=    5 SFac= 1.00D+00 NAtFMM=   50 NAOKFM=F Big=F
 One-electron integrals computed using PRISM.
 NBasis=    76 RedAO= T  NBF=    76
 NBsUse=    76 1.00D-06 NBFU=    76
 Defaulting to unpruned grid for atomic number  53.
 Harris functional with IExCor=  402 diagonalized for initial guess.
 ExpMin= 1.15D-01 ExpMax= 1.44D+04 ExpMxC= 1.44D+04 IAcc=1 IRadAn=         1 AccDes= 0.00D+00
 HarFok:  IExCor=  402 AccDes= 0.00D+00 IRadAn=         1 IDoV= 1
 ScaDFX=  1.000000  1.000000  1.000000  1.000000
 Defaulting to unpruned grid for atomic number  53.
 Defaulting to unpruned grid for atomic number  53.
 Defaulting to unpruned grid for atomic number  53.
 Defaulting to unpruned grid for atomic number  53.
 FoFCou: FMM=F IPFlag=           0 FMFlag=      100000 FMFlg1=           0
         NFxFlg=           0 DoJE=T BraDBF=F KetDBF=T FulRan=T
         Omega=  0.000000  0.000000  1.000000  0.000000  0.000000 ICntrl=     500 IOpCl=  0
         NMat0=    1 NMatS0=    1 NMatT0=    0 NMatD0=    1 NMtDS0=    0 NMtDT0=    0
         I1Cent=           4 NGrid=           0.
 Petite list used in FoFCou.
 Initial guess orbital symmetries:
       Occupied  (A) (A) (A) (A) (A) (A) (A) (A) (A) (A) (A) (A)
                 (A) (A) (A) (A) (A) (A) (A) (A) (A) (A) (A) (A)
                 (A) (A) (A) (A) (A) (A) (A) (A) (A) (A) (A) (A)
                 (A) (A) (A) (A) (A) (A) (A) (A) (A) (A) (A) (A)
                 (A) (A) (A) (A)
       Virtual   (A) (A) (A) (A) (A) (A) (A) (A) (A) (A) (A) (A)
                 (A) (A) (A) (A) (A) (A) (A) (A) (A) (A) (A) (A)
 The electronic state of the initial guess is 1-A.
 Requested convergence on RMS density matrix=1.00D-08 within 128 cycles.
 Requested convergence on MAX density matrix=1.00D-06.
 Requested convergence on             energy=1.00D-06.
 No special actions if energy rises.
 Keep R1 ints in memory in canonical form, NReq=5269511.
 Integral accuracy reduced to 1.0D-05 until final iterations.
 Defaulting to unpruned grid for atomic number  53.
 Defaulting to unpruned grid for atomic number  53.
 Defaulting to unpruned grid for atomic number  53.
 Defaulting to unpruned grid for atomic number  53.
 Initial convergence to 1.0D-05 achieved.  Increase integral accuracy.
 SCF Done:  E(RB3LYP) =  -9590.11966504     A.U. after   15 cycles
             Convg  =    0.2600D-08             -V/T =  2.0019

 **********************************************************************

            Population analysis using the SCF density.

 **********************************************************************

 Orbital symmetries:
       Occupied  (A) (A) (A) (A) (A) (A) (A) (A) (A) (A) (A) (A)
                 (A) (A) (A) (A) (A) (A) (A) (A) (A) (A) (A) (A)
                 (A) (A) (A) (A) (A) (A) (A) (A) (A) (A) (A) (A)
                 (A) (A) (A) (A) (A) (A) (A) (A) (A) (A) (A) (A)
                 (A) (A) (A) (A)
       Virtual   (A) (A) (A) (A) (A) (A) (A) (A) (A) (A) (A) (A)
                 (A) (A) (A) (A) (A) (A) (A) (A) (A) (A) (A) (A)
 The electronic state is 1-A.
 Alpha  occ. eigenvalues -- **********-479.55282-175.58320-164.34632-164.34381
 Alpha  occ. eigenvalues -- -164.34378 -62.10818 -55.71245 -55.70781 -55.70770
 Alpha  occ. eigenvalues --  -35.74790 -30.91167 -30.90512 -30.90501 -24.58365
 Alpha  occ. eigenvalues --  -22.83704 -22.83478 -22.83469 -22.82999 -22.82999
 Alpha  occ. eigenvalues --  -10.30161  -8.62460  -6.41995  -6.40341  -6.40296
 Alpha  occ. eigenvalues --   -6.38093  -4.69146  -4.67400  -4.67376  -2.51367
 Alpha  occ. eigenvalues --   -2.50708  -2.50679  -2.49353  -2.49352  -2.06988
 Alpha  occ. eigenvalues --   -2.06400  -2.06383  -2.04891  -2.04889  -1.23788
 Alpha  occ. eigenvalues --   -0.83464  -0.72330  -0.63338  -0.53865  -0.49106
 Alpha  occ. eigenvalues --   -0.47757  -0.37055  -0.35034  -0.30586  -0.29286
 Alpha  occ. eigenvalues --   -0.27536  -0.26222
 Alpha virt. eigenvalues --   -0.05759   0.00250   0.10545   0.13519   0.33360
 Alpha virt. eigenvalues --    0.38919   0.39987   0.40193   0.58335   0.62083
 Alpha virt. eigenvalues --    0.62462   0.67172   0.71767   0.76426   0.81052
 Alpha virt. eigenvalues --    0.96770   1.49751   1.90119   1.92313   2.01552
 Alpha virt. eigenvalues --    3.48932   4.13615  23.55831 225.78566
          Condensed to atoms (all electrons):
              1          2          3          4          5
     1  C    5.629169   0.182893   0.300231   0.178399   0.147969
     2  I    0.182893  52.687710  -0.038971  -0.028323  -0.074854
     3  H    0.300231  -0.038971   0.534131  -0.032555  -0.049807
     4  F    0.178399  -0.028323  -0.032555   9.166120  -0.033158
     5  Br   0.147969  -0.074854  -0.049807  -0.033158  34.879223
 Mulliken atomic charges:
              1
     1  C   -0.438662
     2  I    0.271545
     3  H    0.286973
     4  F   -0.250483
     5  Br   0.130628
 Sum of Mulliken atomic charges =   0.00000
 Mulliken charges with hydrogens summed into heavy atoms:
              1
     1  C   -0.151689
     2  I    0.271545
     4  F   -0.250483
     5  Br   0.130628
 Sum of Mulliken charges with hydrogens summed into heavy atoms =   0.00000
 Electronic spatial extent (au):  <R**2>=           1128.0770
 Charge=              0.0000 electrons
 Dipole moment (field-independent basis, Debye):
    X=             -0.3159    Y=             -0.2003    Z=              1.3446  Tot=              1.3956
 Quadrupole moment (field-independent basis, Debye-Ang):
   XX=            -56.9520   YY=            -58.5292   ZZ=            -55.9205
   XY=              0.4278   XZ=              0.9903   YZ=              2.0489
 Traceless Quadrupole moment (field-independent basis, Debye-Ang):
   XX=              0.1819   YY=             -1.3953   ZZ=              1.2135
   XY=              0.4278   XZ=              0.9903   YZ=              2.0489
 Octapole moment (field-independent basis, Debye-Ang**2):
  XXX=             -4.3748  YYY=             -9.9802  ZZZ=             -0.8059  XYY=              0.0861
  XXY=             -8.4762  XXZ=             -4.4029  XZZ=              1.5926  YZZ=              0.3528
  YYZ=              0.3183  XYZ=              0.8278
 Hexadecapole moment (field-independent basis, Debye-Ang**3):
 XXXX=           -757.9383 YYYY=           -218.6501 ZZZZ=            -78.2563 XXXY=             -2.3841
 XXXZ=             -0.9687 YYYX=             -5.6746 YYYZ=              0.0593 ZZZX=              0.3098
 ZZZY=             -0.1232 XXYY=           -159.6930 XXZZ=           -146.6335 YYZZ=            -46.9939
 XXYZ=              2.8464 YYXZ=              0.2314 ZZXY=              0.2121
 N-N= 6.309081321453D+02 E-N=-2.407057602536D+04  KE= 9.572142384610D+03
 Calling FoFJK, ICntrl=      2127 FMM=F ISym2X=0 I1Cent= 0 IOpClX= 0 NMat=1 NMatS=1 NMatT=0.
 Defaulting to unpruned grid for atomic number  53.
 Defaulting to unpruned grid for atomic number  53.
 Defaulting to unpruned grid for atomic number  53.
 Defaulting to unpruned grid for atomic number  53.
 ***** Axes restored to original set *****
 -------------------------------------------------------------------
 Center     Atomic                   Forces (Hartrees/Bohr)
 Number     Number              X              Y              Z
 -------------------------------------------------------------------
      1        6          -0.027023506    0.017529952   -0.002953874
      2       53           0.042418300    0.004284561    0.023107142
      3        1           0.008477076    0.001791191   -0.000297916
      4        9          -0.015949168   -0.025731004    0.010000298
      5       35          -0.007922702    0.002125300   -0.029855650
 -------------------------------------------------------------------
 Cartesian Forces:  Max     0.042418300 RMS     0.019058112

 GradGradGradGradGradGradGradGradGradGradGradGradGradGradGradGradGradGrad
 Berny optimization.
 Internal  Forces:  Max     0.047571027 RMS     0.018623622
 Search for a local minimum.
 Step number   1 out of a maximum of   24
 All quantities printed in internal units (Hartrees-Bohrs-Radians)
 Mixed Optimization -- RFO/linear search
 Second derivative matrix not updated -- first step.
 The second derivative matrix:
                          R1        R2        R3        R4        A1
           R1           0.14617
           R2           0.00000   0.34520
           R3           0.00000   0.00000   0.53168
           R4           0.00000   0.00000   0.00000   0.16215
           A1           0.00000   0.00000   0.00000   0.00000   0.16000
           A2           0.00000   0.00000   0.00000   0.00000   0.00000
           A3           0.00000   0.00000   0.00000   0.00000   0.00000
           A4           0.00000   0.00000   0.00000   0.00000   0.00000
           A5           0.00000   0.00000   0.00000   0.00000   0.00000
           A6           0.00000   0.00000   0.00000   0.00000   0.00000
           D1           0.00000   0.00000   0.00000   0.00000   0.00000
           D2           0.00000   0.00000   0.00000   0.00000   0.00000
           D3           0.00000   0.00000   0.00000   0.00000   0.00000
           D4           0.00000   0.00000   0.00000   0.00000   0.00000
                          A2        A3        A4        A5        A6
           A2           0.25000
           A3           0.00000   0.25000
           A4           0.00000   0.00000   0.16000
           A5           0.00000   0.00000   0.00000   0.16000
           A6           0.00000   0.00000   0.00000   0.00000   0.25000
           D1           0.00000   0.00000   0.00000   0.00000   0.00000
           D2           0.00000   0.00000   0.00000   0.00000   0.00000
           D3           0.00000   0.00000   0.00000   0.00000   0.00000
           D4           0.00000   0.00000   0.00000   0.00000   0.00000
                          D1        D2        D3        D4
           D1           0.01971
           D2           0.00000   0.00230
           D3           0.00000   0.00000   0.00230
           D4           0.00000   0.00000   0.00000   0.00230
 ITU=  0
     Eigenvalues ---    0.05964   0.07417   0.10428   0.14617   0.16215
     Eigenvalues ---    0.21336   0.23757   0.34520   0.53168
 RFO step:  Lambda=-2.37909364D-02 EMin= 5.96369139D-02
 Linear search not attempted -- first point.
 Maximum step size (   0.300) exceeded in Quadratic search.
    -- Step size scaled by   0.858
 Iteration  1 RMS(Cart)=  0.08839164 RMS(Int)=  0.01036993
 Iteration  2 RMS(Cart)=  0.00976457 RMS(Int)=  0.00063529
 Iteration  3 RMS(Cart)=  0.00001117 RMS(Int)=  0.00063524
 Iteration  4 RMS(Cart)=  0.00000001 RMS(Int)=  0.00063524
 Variable       Old X    -DE/DX   Delta X   Delta X   Delta X     New X
                                 (Linear)    (Quad)   (Total)
    R1        3.93559   0.04757   0.00000   0.24009   0.24009   4.17568
    R2        2.06462  -0.00305   0.00000  -0.00709  -0.00709   2.05753
    R3        2.56797   0.03187   0.00000   0.04921   0.04921   2.61718
    R4        3.67564   0.02992   0.00000   0.13803   0.13803   3.81367
    A1        1.98781  -0.00800   0.00000  -0.06149  -0.06062   1.92718
    A2        1.90792  -0.00215   0.00000   0.00945   0.00801   1.91592
    A3        1.90914   0.01912   0.00000   0.07489   0.07460   1.98374
    A4        1.88923   0.00458   0.00000   0.01238   0.01221   1.90144
    A5        1.86106  -0.00839   0.00000  -0.03315  -0.03267   1.82839
    A6        1.90706  -0.00549   0.00000  -0.00206  -0.00291   1.90415
    D1        2.17421  -0.00831   0.00000  -0.06204  -0.06195   2.11226
    D2       -2.15702   0.00361   0.00000   0.05090   0.05182  -2.10520
    D3        2.08799   0.00558   0.00000   0.05538   0.05633   2.14432
    D4       -2.03817   0.00197   0.00000   0.00448   0.00451  -2.03366
         Item               Value     Threshold  Converged?
 Maximum Force            0.047571     0.000450     NO 
 RMS     Force            0.018624     0.000300     NO 
 Maximum Displacement     0.198654     0.001800     NO 
 RMS     Displacement     0.096097     0.001200     NO 
 Predicted change in Energy=-1.285527D-02
 GradGradGradGradGradGradGradGradGradGradGradGradGradGradGradGradGradGrad

                          Input orientation:                          
 ---------------------------------------------------------------------
 Center     Atomic      Atomic             Coordinates (Angstroms)
 Number     Number       Type             X           Y           Z
 ---------------------------------------------------------------------
      1          6           0       -0.991552    0.080167    0.241537
      2         53           0        1.070066    0.092184    1.036680
      3          1           0       -1.526858    0.973087    0.560315
      4          9           0       -1.665767   -1.037542    0.704416
      5         35           0       -1.082383    0.118438   -1.774161
 ---------------------------------------------------------------------
                    Distance matrix (angstroms):
                    1          2          3          4          5
     1  C    0.000000
     2  I    2.209676   0.000000
     3  H    1.088796   2.783330   0.000000
     4  F    1.384953   2.978500   2.020566   0.000000
     5  Br   2.018107   3.540418   2.525424   2.796422   0.000000
 Stoichiometry    CHBrFI
 Framework group  C1[X(CHBrFI)]
 Deg. of freedom     9
 Full point group                 C1      NOp   1
 Largest Abelian subgroup         C1      NOp   1
 Largest concise Abelian subgroup C1      NOp   1
                         Standard orientation:                         
 ---------------------------------------------------------------------
 Center     Atomic      Atomic             Coordinates (Angstroms)
 Number     Number       Type             X           Y           Z
 ---------------------------------------------------------------------
      1          6           0        0.443164    0.763811    0.439223
      2         53           0       -1.497601   -0.188512   -0.018137
      3          1           0        0.536204    0.941679    1.509356
      4          9           0        0.540144    1.973688   -0.227777
      5         35           0        2.037611   -0.379903   -0.032384
 ---------------------------------------------------------------------
 Rotational constants (GHZ):      4.8909708      0.8080869      0.7044528
 Standard basis: 3-21G (6D, 7F)
 There are    76 symmetry adapted basis functions of A   symmetry.
 Integral buffers will be    131072 words long.
 Raffenetti 2 integral format.
 Two-electron integral symmetry is turned on.
    76 basis functions,   177 primitive gaussians,    76 cartesian basis functions
    52 alpha electrons       52 beta electrons
       nuclear repulsion energy       596.1540853359 Hartrees.
 NAtoms=    5 NActive=    5 NUniq=    5 SFac= 1.00D+00 NAtFMM=   50 NAOKFM=F Big=F
 One-electron integrals computed using PRISM.
 NBasis=    76 RedAO= T  NBF=    76
 NBsUse=    76 1.00D-06 NBFU=    76
 Defaulting to unpruned grid for atomic number  53.
 Initial guess read from the read-write file.
 B after Tr=     0.000000    0.000000    0.000000
         Rot=    1.000000    0.000000    0.000000    0.000000 Ang=   0.00 deg.
 Initial guess orbital symmetries:
       Occupied  (A) (A) (A) (A) (A) (A) (A) (A) (A) (A) (A) (A)
                 (A) (A) (A) (A) (A) (A) (A) (A) (A) (A) (A) (A)
                 (A) (A) (A) (A) (A) (A) (A) (A) (A) (A) (A) (A)
                 (A) (A) (A) (A) (A) (A) (A) (A) (A) (A) (A) (A)
                 (A) (A) (A) (A)
       Virtual   (A) (A) (A) (A) (A) (A) (A) (A) (A) (A) (A) (A)
                 (A) (A) (A) (A) (A) (A) (A) (A) (A) (A) (A) (A)
 Harris functional with IExCor=  402 diagonalized for initial guess.
 ExpMin= 1.15D-01 ExpMax= 1.44D+04 ExpMxC= 1.44D+04 IAcc=1 IRadAn=         1 AccDes= 0.00D+00
 HarFok:  IExCor=  402 AccDes= 0.00D+00 IRadAn=         1 IDoV= 1
 ScaDFX=  1.000000  1.000000  1.000000  1.000000
 Defaulting to unpruned grid for atomic number  53.
 Defaulting to unpruned grid for atomic number  53.
 Defaulting to unpruned grid for atomic number  53.
 Defaulting to unpruned grid for atomic number  53.
 FoFCou: FMM=F IPFlag=           0 FMFlag=      100000 FMFlg1=           0
         NFxFlg=           0 DoJE=T BraDBF=F KetDBF=T FulRan=T
         Omega=  0.000000  0.000000  1.000000  0.000000  0.000000 ICntrl=     500 IOpCl=  0
         NMat0=    1 NMatS0=    1 NMatT0=    0 NMatD0=    1 NMtDS0=    0 NMtDT0=    0
         I1Cent=           4 NGrid=           0.
 Petite list used in FoFCou.
 Requested convergence on RMS density matrix=1.00D-08 within 128 cycles.
 Requested convergence on MAX density matrix=1.00D-06.
 Requested convergence on             energy=1.00D-06.
 No special actions if energy rises.
 Keep R1 ints in memory in canonical form, NReq=5269518.
 Integral accuracy reduced to 1.0D-05 until final iterations.
 Defaulting to unpruned grid for atomic number  53.
 Defaulting to unpruned grid for atomic number  53.
 Defaulting to unpruned grid for atomic number  53.
 Defaulting to unpruned grid for atomic number  53.
 Initial convergence to 1.0D-05 achieved.  Increase integral accuracy.
 SCF Done:  E(RB3LYP) =  -9590.12916333     A.U. after   14 cycles
             Convg  =    0.4385D-08             -V/T =  2.0019
 Calling FoFJK, ICntrl=      2127 FMM=F ISym2X=0 I1Cent= 0 IOpClX= 0 NMat=1 NMatS=1 NMatT=0.
 Defaulting to unpruned grid for atomic number  53.
 Defaulting to unpruned grid for atomic number  53.
 Defaulting to unpruned grid for atomic number  53.
 Defaulting to unpruned grid for atomic number  53.
 ***** Axes restored to original set *****
 -------------------------------------------------------------------
 Center     Atomic                   Forces (Hartrees/Bohr)
 Number     Number              X              Y              Z
 -------------------------------------------------------------------
      1        6          -0.010813323   -0.001319833   -0.002346076
      2       53           0.000606435    0.001448184    0.000760405
      3        1           0.006455972    0.001865549    0.000850689
      4        9           0.002593917   -0.001745995   -0.000368463
      5       35           0.001157000   -0.000247906    0.001103444
 -------------------------------------------------------------------
 Cartesian Forces:  Max     0.010813323 RMS     0.003517870

 GradGradGradGradGradGradGradGradGradGradGradGradGradGradGradGradGradGrad
 Berny optimization.
 Using GEDIIS/GDIIS optimizer.
 Internal  Forces:  Max     0.004060783 RMS     0.001969670
 Search for a local minimum.
 Step number   2 out of a maximum of   24
 All quantities printed in internal units (Hartrees-Bohrs-Radians)
 Mixed Optimization -- RFO/linear search
 Update second derivatives using D2CorX and points    1    2
 DE= -9.50D-03 DEPred=-1.29D-02 R= 7.39D-01
 SS=  1.41D+00  RLast= 3.15D-01 DXNew= 5.0454D-01 9.4590D-01
 Trust test= 7.39D-01 RLast= 3.15D-01 DXMaxT set to 5.05D-01
 The second derivative matrix:
                          R1        R2        R3        R4        A1
           R1           0.17346
           R2           0.00183   0.34494
           R3           0.01339   0.00161   0.53692
           R4           0.02039   0.00106   0.01057   0.17714
           A1           0.01063  -0.00115   0.00868   0.00645   0.15507
           A2          -0.00955   0.00050  -0.00681  -0.00623   0.00182
           A3           0.00304   0.00138  -0.00070   0.00321   0.00690
           A4          -0.00107   0.00019  -0.00102  -0.00059   0.00088
           A5          -0.01067  -0.00004  -0.00650  -0.00743  -0.00086
           A6          -0.00990   0.00029  -0.00664  -0.00663   0.00080
           D1          -0.01268   0.00035  -0.00846  -0.00851   0.00092
           D2           0.00098  -0.00003   0.00065   0.00066  -0.00006
           D3           0.01501  -0.00052   0.01021   0.00999  -0.00159
           D4           0.01403  -0.00050   0.00956   0.00933  -0.00153
                          A2        A3        A4        A5        A6
           A2           0.24996
           A3          -0.00456   0.24673
           A4          -0.00042  -0.00093   0.15986
           A5           0.00172  -0.00327  -0.00005   0.16298
           A6           0.00062  -0.00404  -0.00028   0.00218   0.25120
           D1           0.00086  -0.00511  -0.00034   0.00283   0.00159
           D2          -0.00007   0.00039   0.00002  -0.00022  -0.00013
           D3          -0.00071   0.00636   0.00047  -0.00317  -0.00162
           D4          -0.00063   0.00598   0.00045  -0.00294  -0.00150
                          D1        D2        D3        D4
           D1           0.02182
           D2          -0.00017   0.00231
           D3          -0.00217   0.00018   0.00445
           D4          -0.00200   0.00016   0.00198   0.00411
 ITU=  1  0
 Use linear search instead of GDIIS.
     Eigenvalues ---    0.05724   0.07088   0.10445   0.15491   0.19028
     Eigenvalues ---    0.22590   0.24235   0.34496   0.53827
 RFO step:  Lambda=-8.17683889D-04 EMin= 5.72418063D-02
 Quartic linear search produced a step of  0.02348.
 Iteration  1 RMS(Cart)=  0.02122780 RMS(Int)=  0.00061162
 Iteration  2 RMS(Cart)=  0.00047532 RMS(Int)=  0.00023683
 Iteration  3 RMS(Cart)=  0.00000005 RMS(Int)=  0.00023683
 Variable       Old X    -DE/DX   Delta X   Delta X   Delta X     New X
                                 (Linear)    (Quad)   (Total)
    R1        4.17568   0.00085   0.00564   0.00845   0.01408   4.18977
    R2        2.05753  -0.00139  -0.00017  -0.00418  -0.00435   2.05318
    R3        2.61718   0.00002   0.00116   0.00043   0.00158   2.61876
    R4        3.81367  -0.00116   0.00324  -0.00586  -0.00262   3.81105
    A1        1.92718  -0.00289  -0.00142  -0.04644  -0.04773   1.87946
    A2        1.91592  -0.00005   0.00019  -0.00524  -0.00494   1.91098
    A3        1.98374  -0.00079   0.00175  -0.00947  -0.00797   1.97576
    A4        1.90144   0.00309   0.00029   0.04757   0.04753   1.94898
    A5        1.82839   0.00140  -0.00077   0.01268   0.01144   1.83983
    A6        1.90415  -0.00051  -0.00007   0.00477   0.00435   1.90850
    D1        2.11226  -0.00165  -0.00145  -0.03051  -0.03238   2.07988
    D2       -2.10520   0.00307   0.00122   0.05402   0.05524  -2.04996
    D3        2.14432  -0.00099   0.00132  -0.00981  -0.00868   2.13565
    D4       -2.03366  -0.00406   0.00011  -0.06384  -0.06392  -2.09758
         Item               Value     Threshold  Converged?
 Maximum Force            0.004061     0.000450     NO 
 RMS     Force            0.001970     0.000300     NO 
 Maximum Displacement     0.051327     0.001800     NO 
 RMS     Displacement     0.021192     0.001200     NO 
 Predicted change in Energy=-4.117619D-04
 GradGradGradGradGradGradGradGradGradGradGradGradGradGradGradGradGradGrad

                          Input orientation:                          
 ---------------------------------------------------------------------
 Center     Atomic      Atomic             Coordinates (Angstroms)
 Number     Number       Type             X           Y           Z
 ---------------------------------------------------------------------
      1          6           0       -1.007957    0.074801    0.239764
      2         53           0        1.060423    0.102323    1.037700
      3          1           0       -1.499697    0.987115    0.565877
      4          9           0       -1.666351   -1.054168    0.700587
      5         35           0       -1.082912    0.116263   -1.775140
 ---------------------------------------------------------------------
                    Distance matrix (angstroms):
                    1          2          3          4          5
     1  C    0.000000
     2  I    2.217128   0.000000
     3  H    1.086496   2.749489   0.000000
     4  F    1.385790   2.981009   2.052500   0.000000
     5  Br   2.016723   3.536404   2.532282   2.799917   0.000000
 Stoichiometry    CHBrFI
 Framework group  C1[X(CHBrFI)]
 Deg. of freedom     9
 Full point group                 C1      NOp   1
 Largest Abelian subgroup         C1      NOp   1
 Largest concise Abelian subgroup C1      NOp   1
                         Standard orientation:                         
 ---------------------------------------------------------------------
 Center     Atomic      Atomic             Coordinates (Angstroms)
 Number     Number       Type             X           Y           Z
 ---------------------------------------------------------------------
      1          6           0        0.448905    0.769785    0.444061
      2         53           0       -1.495988   -0.188816   -0.018683
      3          1           0        0.502806    0.903995    1.520888
      4          9           0        0.539982    1.978594   -0.227428
      5         35           0        2.035180   -0.380651   -0.032806
 ---------------------------------------------------------------------
 Rotational constants (GHZ):      4.8647351      0.8097395      0.7053365
 Standard basis: 3-21G (6D, 7F)
 There are    76 symmetry adapted basis functions of A   symmetry.
 Integral buffers will be    131072 words long.
 Raffenetti 2 integral format.
 Two-electron integral symmetry is turned on.
    76 basis functions,   177 primitive gaussians,    76 cartesian basis functions
    52 alpha electrons       52 beta electrons
       nuclear repulsion energy       596.1660605269 Hartrees.
 NAtoms=    5 NActive=    5 NUniq=    5 SFac= 1.00D+00 NAtFMM=   50 NAOKFM=F Big=F
 One-electron integrals computed using PRISM.
 NBasis=    76 RedAO= T  NBF=    76
 NBsUse=    76 1.00D-06 NBFU=    76
 Defaulting to unpruned grid for atomic number  53.
 Initial guess read from the read-write file.
 B after Tr=     0.000000    0.000000    0.000000
         Rot=    1.000000    0.000000    0.000000    0.000000 Ang=   0.00 deg.
 Initial guess orbital symmetries:
       Occupied  (A) (A) (A) (A) (A) (A) (A) (A) (A) (A) (A) (A)
                 (A) (A) (A) (A) (A) (A) (A) (A) (A) (A) (A) (A)
                 (A) (A) (A) (A) (A) (A) (A) (A) (A) (A) (A) (A)
                 (A) (A) (A) (A) (A) (A) (A) (A) (A) (A) (A) (A)
                 (A) (A) (A) (A)
       Virtual   (A) (A) (A) (A) (A) (A) (A) (A) (A) (A) (A) (A)
                 (A) (A) (A) (A) (A) (A) (A) (A) (A) (A) (A) (A)
 Harris functional with IExCor=  402 diagonalized for initial guess.
 ExpMin= 1.15D-01 ExpMax= 1.44D+04 ExpMxC= 1.44D+04 IAcc=1 IRadAn=         1 AccDes= 0.00D+00
 HarFok:  IExCor=  402 AccDes= 0.00D+00 IRadAn=         1 IDoV= 1
 ScaDFX=  1.000000  1.000000  1.000000  1.000000
 Defaulting to unpruned grid for atomic number  53.
 Defaulting to unpruned grid for atomic number  53.
 Defaulting to unpruned grid for atomic number  53.
 Defaulting to unpruned grid for atomic number  53.
 FoFCou: FMM=F IPFlag=           0 FMFlag=      100000 FMFlg1=           0
         NFxFlg=           0 DoJE=T BraDBF=F KetDBF=T FulRan=T
         Omega=  0.000000  0.000000  1.000000  0.000000  0.000000 ICntrl=     500 IOpCl=  0
         NMat0=    1 NMatS0=    1 NMatT0=    0 NMatD0=    1 NMtDS0=    0 NMtDT0=    0
         I1Cent=           4 NGrid=           0.
 Petite list used in FoFCou.
 Requested convergence on RMS density matrix=1.00D-08 within 128 cycles.
 Requested convergence on MAX density matrix=1.00D-06.
 Requested convergence on             energy=1.00D-06.
 No special actions if energy rises.
 Keep R1 ints in memory in canonical form, NReq=5269518.
 Integral accuracy reduced to 1.0D-05 until final iterations.
 Defaulting to unpruned grid for atomic number  53.
 Defaulting to unpruned grid for atomic number  53.
 Defaulting to unpruned grid for atomic number  53.
 Defaulting to unpruned grid for atomic number  53.
 Initial convergence to 1.0D-05 achieved.  Increase integral accuracy.
 SCF Done:  E(RB3LYP) =  -9590.12959635     A.U. after   11 cycles
             Convg  =    0.6575D-08             -V/T =  2.0019
 Calling FoFJK, ICntrl=      2127 FMM=F ISym2X=0 I1Cent= 0 IOpClX= 0 NMat=1 NMatS=1 NMatT=0.
 Defaulting to unpruned grid for atomic number  53.
 Defaulting to unpruned grid for atomic number  53.
 Defaulting to unpruned grid for atomic number  53.
 Defaulting to unpruned grid for atomic number  53.
 ***** Axes restored to original set *****
 -------------------------------------------------------------------
 Center     Atomic                   Forces (Hartrees/Bohr)
 Number     Number              X              Y              Z
 -------------------------------------------------------------------
      1        6          -0.003301750   -0.003235341   -0.002702450
      2       53           0.001095793    0.000512226    0.000713242
      3        1           0.000568877   -0.000498709    0.001121230
      4        9           0.001506547    0.003423286   -0.000812015
      5       35           0.000130532   -0.000201462    0.001679993
 -------------------------------------------------------------------
 Cartesian Forces:  Max     0.003423286 RMS     0.001825769

 GradGradGradGradGradGradGradGradGradGradGradGradGradGradGradGradGradGrad
 Berny optimization.
 Using GEDIIS/GDIIS optimizer.
 Internal  Forces:  Max     0.003776938 RMS     0.001256074
 Search for a local minimum.
 Step number   3 out of a maximum of   24
 All quantities printed in internal units (Hartrees-Bohrs-Radians)
 Mixed Optimization -- RFO/linear search
 Update second derivatives using D2CorX and points    1    2    3
 DE= -4.33D-04 DEPred=-4.12D-04 R= 1.05D+00
 SS=  1.41D+00  RLast= 1.15D-01 DXNew= 8.4853D-01 3.4549D-01
 Trust test= 1.05D+00 RLast= 1.15D-01 DXMaxT set to 5.05D-01
 The second derivative matrix:
                          R1        R2        R3        R4        A1
           R1           0.16649
           R2           0.00498   0.34397
           R3           0.01705  -0.00327   0.56780
           R4           0.02274  -0.00104   0.02146   0.18098
           A1           0.03140  -0.01058   0.00531   0.00295   0.09824
           A2          -0.00510  -0.00169  -0.00608  -0.00646  -0.01013
           A3           0.00935  -0.00178   0.00207   0.00364  -0.00908
           A4          -0.02049   0.00803   0.01110   0.00588   0.05554
           A5          -0.01580   0.00256  -0.00874  -0.00774   0.01230
           A6          -0.01397   0.00294  -0.01366  -0.00875   0.01037
           D1          -0.01072  -0.00023  -0.01197  -0.01003  -0.00521
           D2           0.00487  -0.00393   0.01988   0.00715  -0.00704
           D3           0.01228   0.00163   0.00252   0.00756   0.00456
           D4           0.00741   0.00556  -0.01736   0.00041   0.01160
                          A2        A3        A4        A5        A6
           A2           0.24751
           A3          -0.00776   0.24275
           A4           0.01150   0.01545   0.10984
           A5           0.00435   0.00004  -0.01355   0.16024
           A6           0.00228  -0.00225  -0.01165   0.00070   0.25144
           D1          -0.00057  -0.00722   0.00467   0.00456   0.00339
           D2          -0.00062   0.00069   0.01240  -0.00048  -0.00376
           D3           0.00020   0.00719  -0.00779  -0.00383  -0.00069
           D4           0.00083   0.00650  -0.02019  -0.00335   0.00307
                          D1        D2        D3        D4
           D1           0.02148
           D2          -0.00289   0.01396
           D3          -0.00071  -0.00423   0.00593
           D4           0.00219  -0.01588   0.00785   0.02603
 ITU=  1  1  0
 Use linear search instead of GDIIS.
     Eigenvalues ---    0.04497   0.07644   0.10911   0.15540   0.18995
     Eigenvalues ---    0.22473   0.24153   0.34415   0.57151
 RFO step:  Lambda=-1.01661621D-04 EMin= 4.49729260D-02
 Quartic linear search produced a step of  0.08060.
 Iteration  1 RMS(Cart)=  0.00643635 RMS(Int)=  0.00005447
 Iteration  2 RMS(Cart)=  0.00004252 RMS(Int)=  0.00003146
 Iteration  3 RMS(Cart)=  0.00000000 RMS(Int)=  0.00003146
 Variable       Old X    -DE/DX   Delta X   Delta X   Delta X     New X
                                 (Linear)    (Quad)   (Total)
    R1        4.18977   0.00128   0.00114   0.01117   0.01231   4.20207
    R2        2.05318  -0.00034  -0.00035  -0.00127  -0.00162   2.05156
    R3        2.61876  -0.00378   0.00013  -0.00740  -0.00727   2.61149
    R4        3.81105  -0.00169  -0.00021  -0.01069  -0.01090   3.80015
    A1        1.87946  -0.00063  -0.00385  -0.01188  -0.01571   1.86374
    A2        1.91098   0.00015  -0.00040   0.00182   0.00142   1.91240
    A3        1.97576   0.00002  -0.00064   0.00253   0.00186   1.97763
    A4        1.94898  -0.00067   0.00383  -0.00442  -0.00066   1.94832
    A5        1.83983   0.00097   0.00092   0.00844   0.00931   1.84914
    A6        1.90850   0.00015   0.00035   0.00328   0.00358   1.91209
    D1        2.07988  -0.00111  -0.00261  -0.01637  -0.01901   2.06087
    D2       -2.04996   0.00015   0.00445   0.00776   0.01223  -2.03773
    D3        2.13565   0.00031  -0.00070   0.00647   0.00575   2.14140
    D4       -2.09758   0.00016  -0.00515  -0.00128  -0.00647  -2.10405
         Item               Value     Threshold  Converged?
 Maximum Force            0.003777     0.000450     NO 
 RMS     Force            0.001256     0.000300     NO 
 Maximum Displacement     0.012186     0.001800     NO 
 RMS     Displacement     0.006454     0.001200     NO 
 Predicted change in Energy=-5.284839D-05
 GradGradGradGradGradGradGradGradGradGradGradGradGradGradGradGradGradGrad

                          Input orientation:                          
 ---------------------------------------------------------------------
 Center     Atomic      Atomic             Coordinates (Angstroms)
 Number     Number       Type             X           Y           Z
 ---------------------------------------------------------------------
      1          6           0       -1.011024    0.071882    0.234720
      2         53           0        1.061273    0.106733    1.040298
      3          1           0       -1.493249    0.984808    0.570342
      4          9           0       -1.668932   -1.051694    0.697864
      5         35           0       -1.084563    0.114604   -1.774436
 ---------------------------------------------------------------------
                    Distance matrix (angstroms):
                    1          2          3          4          5
     1  C    0.000000
     2  I    2.223642   0.000000
     3  H    1.085641   2.741798   0.000000
     4  F    1.381943   2.985504   2.048040   0.000000
     5  Br   2.010955   3.539406   2.534218   2.795354   0.000000
 Stoichiometry    CHBrFI
 Framework group  C1[X(CHBrFI)]
 Deg. of freedom     9
 Full point group                 C1      NOp   1
 Largest Abelian subgroup         C1      NOp   1
 Largest concise Abelian subgroup C1      NOp   1
                         Standard orientation:                         
 ---------------------------------------------------------------------
 Center     Atomic      Atomic             Coordinates (Angstroms)
 Number     Number       Type             X           Y           Z
 ---------------------------------------------------------------------
      1          6           0        0.455843    0.769197    0.439958
      2         53           0       -1.498300   -0.187694   -0.018594
      3          1           0        0.494900    0.901961    1.516743
      4          9           0        0.547602    1.976691   -0.225854
      5         35           0        2.035758   -0.381703   -0.032524
 ---------------------------------------------------------------------
 Rotational constants (GHZ):      4.8749958      0.8081665      0.7042178
 Standard basis: 3-21G (6D, 7F)
 There are    76 symmetry adapted basis functions of A   symmetry.
 Integral buffers will be    131072 words long.
 Raffenetti 2 integral format.
 Two-electron integral symmetry is turned on.
    76 basis functions,   177 primitive gaussians,    76 cartesian basis functions
    52 alpha electrons       52 beta electrons
       nuclear repulsion energy       595.9237575158 Hartrees.
 NAtoms=    5 NActive=    5 NUniq=    5 SFac= 1.00D+00 NAtFMM=   50 NAOKFM=F Big=F
 One-electron integrals computed using PRISM.
 NBasis=    76 RedAO= T  NBF=    76
 NBsUse=    76 1.00D-06 NBFU=    76
 Defaulting to unpruned grid for atomic number  53.
 Initial guess read from the read-write file.
 B after Tr=     0.000000    0.000000    0.000000
         Rot=    1.000000    0.000000    0.000000    0.000000 Ang=   0.00 deg.
 Initial guess orbital symmetries:
       Occupied  (A) (A) (A) (A) (A) (A) (A) (A) (A) (A) (A) (A)
                 (A) (A) (A) (A) (A) (A) (A) (A) (A) (A) (A) (A)
                 (A) (A) (A) (A) (A) (A) (A) (A) (A) (A) (A) (A)
                 (A) (A) (A) (A) (A) (A) (A) (A) (A) (A) (A) (A)
                 (A) (A) (A) (A)
       Virtual   (A) (A) (A) (A) (A) (A) (A) (A) (A) (A) (A) (A)
                 (A) (A) (A) (A) (A) (A) (A) (A) (A) (A) (A) (A)
 Requested convergence on RMS density matrix=1.00D-08 within 128 cycles.
 Requested convergence on MAX density matrix=1.00D-06.
 Requested convergence on             energy=1.00D-06.
 No special actions if energy rises.
 Keep R1 ints in memory in canonical form, NReq=5269518.
 Defaulting to unpruned grid for atomic number  53.
 Defaulting to unpruned grid for atomic number  53.
 Defaulting to unpruned grid for atomic number  53.
 Defaulting to unpruned grid for atomic number  53.
 SCF Done:  E(RB3LYP) =  -9590.12966508     A.U. after    9 cycles
             Convg  =    0.3935D-08             -V/T =  2.0019
 Calling FoFJK, ICntrl=      2127 FMM=F ISym2X=0 I1Cent= 0 IOpClX= 0 NMat=1 NMatS=1 NMatT=0.
 Defaulting to unpruned grid for atomic number  53.
 Defaulting to unpruned grid for atomic number  53.
 Defaulting to unpruned grid for atomic number  53.
 Defaulting to unpruned grid for atomic number  53.
 ***** Axes restored to original set *****
 -------------------------------------------------------------------
 Center     Atomic                   Forces (Hartrees/Bohr)
 Number     Number              X              Y              Z
 -------------------------------------------------------------------
      1        6          -0.001075176   -0.001302961   -0.001218054
      2       53           0.000623033    0.000106491    0.000235584
      3        1          -0.000203729    0.000071396    0.000412429
      4        9           0.000573499    0.001220703   -0.000226776
      5       35           0.000082373   -0.000095628    0.000796817
 -------------------------------------------------------------------
 Cartesian Forces:  Max     0.001302961 RMS     0.000708537

 GradGradGradGradGradGradGradGradGradGradGradGradGradGradGradGradGradGrad
 Berny optimization.
 Using GEDIIS/GDIIS optimizer.
 Internal  Forces:  Max     0.001343667 RMS     0.000485682
 Search for a local minimum.
 Step number   4 out of a maximum of   24
 All quantities printed in internal units (Hartrees-Bohrs-Radians)
 Mixed Optimization -- En-DIIS/RFO-DIIS
 Update second derivatives using D2CorX and points    1    2    3    4
 DE= -6.87D-05 DEPred=-5.28D-05 R= 1.30D+00
 SS=  1.41D+00  RLast= 3.56D-02 DXNew= 8.4853D-01 1.0665D-01
 Trust test= 1.30D+00 RLast= 3.56D-02 DXMaxT set to 5.05D-01
 The second derivative matrix:
                          R1        R2        R3        R4        A1
           R1           0.15612
           R2           0.00424   0.34906
           R3           0.03676   0.00239   0.51455
           R4           0.03384  -0.00014  -0.00861   0.16539
           A1           0.03024  -0.00854  -0.02290  -0.01577   0.08971
           A2          -0.01582  -0.00044   0.00382  -0.00357  -0.00439
           A3          -0.00615   0.00026   0.01357   0.00652  -0.00659
           A4           0.00489   0.00375  -0.00812   0.00212   0.04451
           A5          -0.02281   0.00100   0.01108   0.00330   0.02247
           A6          -0.01822   0.00643   0.00936   0.00270   0.01974
           D1          -0.01421   0.00734   0.00249  -0.00564   0.00131
           D2          -0.00675  -0.00615   0.01474   0.00219  -0.00626
           D3           0.02101  -0.00112  -0.00479   0.00661  -0.00096
           D4           0.02777   0.00503  -0.01954   0.00442   0.00530
                          A2        A3        A4        A5        A6
           A2           0.24524
           A3          -0.01338   0.23081
           A4           0.01628   0.02877   0.09954
           A5           0.00080  -0.00397  -0.00678   0.15292
           A6           0.00002  -0.00327  -0.00905  -0.00724   0.24821
           D1           0.00058  -0.00502  -0.00062   0.00004   0.00654
           D2          -0.00215  -0.00659   0.01760   0.00100  -0.00546
           D3           0.00051   0.00987  -0.00770  -0.00135  -0.00049
           D4           0.00266   0.01645  -0.02530  -0.00234   0.00496
                          D1        D2        D3        D4
           D1           0.03215
           D2          -0.00561   0.01412
           D3          -0.00456  -0.00349   0.00760
           D4           0.00105  -0.01531   0.00879   0.02640
 ITU=  1  1  1  0
 Use linear search instead of GDIIS.
     Eigenvalues ---    0.04172   0.07563   0.10466   0.13599   0.18973
     Eigenvalues ---    0.22516   0.24181   0.34917   0.51963
 RFO step:  Lambda=-4.51512407D-06 EMin= 4.17174689D-02
 Quartic linear search produced a step of  0.55687.
 Iteration  1 RMS(Cart)=  0.00313344 RMS(Int)=  0.00001873
 Iteration  2 RMS(Cart)=  0.00001175 RMS(Int)=  0.00001537
 Iteration  3 RMS(Cart)=  0.00000000 RMS(Int)=  0.00001537
 Variable       Old X    -DE/DX   Delta X   Delta X   Delta X     New X
                                 (Linear)    (Quad)   (Total)
    R1        4.20207   0.00067   0.00685   0.00280   0.00965   4.21173
    R2        2.05156   0.00028  -0.00090   0.00170   0.00080   2.05236
    R3        2.61149  -0.00134  -0.00405  -0.00016  -0.00420   2.60729
    R4        3.80015  -0.00080  -0.00607  -0.00242  -0.00849   3.79166
    A1        1.86374  -0.00004  -0.00875   0.00191  -0.00684   1.85691
    A2        1.91240  -0.00001   0.00079  -0.00083  -0.00005   1.91235
    A3        1.97763  -0.00015   0.00104  -0.00119  -0.00015   1.97748
    A4        1.94832  -0.00032  -0.00037  -0.00059  -0.00099   1.94733
    A5        1.84914   0.00031   0.00519   0.00023   0.00540   1.85454
    A6        1.91209   0.00019   0.00199   0.00050   0.00248   1.91456
    D1        2.06087  -0.00025  -0.01058   0.00148  -0.00910   2.05178
    D2       -2.03773  -0.00007   0.00681  -0.00182   0.00500  -2.03273
    D3        2.14140   0.00003   0.00320  -0.00153   0.00167   2.14307
    D4       -2.10405   0.00010  -0.00360   0.00029  -0.00334  -2.10739
         Item               Value     Threshold  Converged?
 Maximum Force            0.001344     0.000450     NO 
 RMS     Force            0.000486     0.000300     NO 
 Maximum Displacement     0.005699     0.001800     NO 
 RMS     Displacement     0.003137     0.001200     NO 
 Predicted change in Energy=-1.007897D-05
 GradGradGradGradGradGradGradGradGradGradGradGradGradGradGradGradGradGrad

                          Input orientation:                          
 ---------------------------------------------------------------------
 Center     Atomic      Atomic             Coordinates (Angstroms)
 Number     Number       Type             X           Y           Z
 ---------------------------------------------------------------------
      1          6           0       -1.013215    0.070595    0.231704
      2         53           0        1.063047    0.108323    1.041048
      3          1           0       -1.491727    0.984016    0.572619
      4          9           0       -1.670094   -1.050186    0.696445
      5         35           0       -1.084505    0.113586   -1.773028
 ---------------------------------------------------------------------
                    Distance matrix (angstroms):
                    1          2          3          4          5
     1  C    0.000000
     2  I    2.228750   0.000000
     3  H    1.086065   2.741011   0.000000
     4  F    1.379719   2.988471   2.045759   0.000000
     5  Br   2.006460   3.539920   2.534864   2.792057   0.000000
 Stoichiometry    CHBrFI
 Framework group  C1[X(CHBrFI)]
 Deg. of freedom     9
 Full point group                 C1      NOp   1
 Largest Abelian subgroup         C1      NOp   1
 Largest concise Abelian subgroup C1      NOp   1
                         Standard orientation:                         
 ---------------------------------------------------------------------
 Center     Atomic      Atomic             Coordinates (Angstroms)
 Number     Number       Type             X           Y           Z
 ---------------------------------------------------------------------
      1          6           0        0.461278    0.769454    0.438218
      2         53           0       -1.499364   -0.186901   -0.018504
      3          1           0        0.493594    0.903016    1.515555
      4          9           0        0.552910    1.975571   -0.225490
      5         35           0        2.035110   -0.382689   -0.032421
 ---------------------------------------------------------------------
 Rotational constants (GHZ):      4.8788245      0.8077301      0.7039152
 Standard basis: 3-21G (6D, 7F)
 There are    76 symmetry adapted basis functions of A   symmetry.
 Integral buffers will be    131072 words long.
 Raffenetti 2 integral format.
 Two-electron integral symmetry is turned on.
    76 basis functions,   177 primitive gaussians,    76 cartesian basis functions
    52 alpha electrons       52 beta electrons
       nuclear repulsion energy       595.8562389307 Hartrees.
 NAtoms=    5 NActive=    5 NUniq=    5 SFac= 1.00D+00 NAtFMM=   50 NAOKFM=F Big=F
 One-electron integrals computed using PRISM.
 NBasis=    76 RedAO= T  NBF=    76
 NBsUse=    76 1.00D-06 NBFU=    76
 Defaulting to unpruned grid for atomic number  53.
 Initial guess read from the read-write file.
 B after Tr=     0.000000    0.000000    0.000000
         Rot=    1.000000    0.000000    0.000000    0.000000 Ang=   0.00 deg.
 Initial guess orbital symmetries:
       Occupied  (A) (A) (A) (A) (A) (A) (A) (A) (A) (A) (A) (A)
                 (A) (A) (A) (A) (A) (A) (A) (A) (A) (A) (A) (A)
                 (A) (A) (A) (A) (A) (A) (A) (A) (A) (A) (A) (A)
                 (A) (A) (A) (A) (A) (A) (A) (A) (A) (A) (A) (A)
                 (A) (A) (A) (A)
       Virtual   (A) (A) (A) (A) (A) (A) (A) (A) (A) (A) (A) (A)
                 (A) (A) (A) (A) (A) (A) (A) (A) (A) (A) (A) (A)
 Requested convergence on RMS density matrix=1.00D-08 within 128 cycles.
 Requested convergence on MAX density matrix=1.00D-06.
 Requested convergence on             energy=1.00D-06.
 No special actions if energy rises.
 Keep R1 ints in memory in canonical form, NReq=5269518.
 Defaulting to unpruned grid for atomic number  53.
 Defaulting to unpruned grid for atomic number  53.
 Defaulting to unpruned grid for atomic number  53.
 Defaulting to unpruned grid for atomic number  53.
 SCF Done:  E(RB3LYP) =  -9590.12967479     A.U. after    9 cycles
             Convg  =    0.2012D-08             -V/T =  2.0019
 Calling FoFJK, ICntrl=      2127 FMM=F ISym2X=0 I1Cent= 0 IOpClX= 0 NMat=1 NMatS=1 NMatT=0.
 Defaulting to unpruned grid for atomic number  53.
 Defaulting to unpruned grid for atomic number  53.
 Defaulting to unpruned grid for atomic number  53.
 Defaulting to unpruned grid for atomic number  53.
 ***** Axes restored to original set *****
 -------------------------------------------------------------------
 Center     Atomic                   Forces (Hartrees/Bohr)
 Number     Number              X              Y              Z
 -------------------------------------------------------------------
      1        6           0.000128538    0.000213483    0.000037581
      2       53           0.000078127   -0.000036119   -0.000050799
      3        1          -0.000193064   -0.000047654   -0.000072533
      4        9          -0.000008714   -0.000100473    0.000131595
      5       35          -0.000004886   -0.000029236   -0.000045844
 -------------------------------------------------------------------
 Cartesian Forces:  Max     0.000213483 RMS     0.000099590

 GradGradGradGradGradGradGradGradGradGradGradGradGradGradGradGradGradGrad
 Berny optimization.
 Using GEDIIS/GDIIS optimizer.
 Internal  Forces:  Max     0.000139093 RMS     0.000083566
 Search for a local minimum.
 Step number   5 out of a maximum of   24
 All quantities printed in internal units (Hartrees-Bohrs-Radians)
 Mixed Optimization -- En-DIIS/RFO-DIIS
 Swaping is turned off.
 Update second derivatives using D2CorX and points    1    2    3    4    5
 DE= -9.71D-06 DEPred=-1.01D-05 R= 9.63D-01
 SS=  1.41D+00  RLast= 1.97D-02 DXNew= 8.4853D-01 5.9124D-02
 Trust test= 9.63D-01 RLast= 1.97D-02 DXMaxT set to 5.05D-01
 The second derivative matrix:
                          R1        R2        R3        R4        A1
           R1           0.15350
           R2           0.00510   0.34759
           R3           0.04107   0.00722   0.52420
           R4           0.03715   0.00287  -0.00809   0.16337
           A1           0.02419  -0.00980  -0.01760  -0.01346   0.09356
           A2          -0.00864  -0.00058  -0.00376  -0.00746  -0.00709
           A3           0.00186   0.00051   0.01032   0.00476  -0.01016
           A4           0.00271   0.00736  -0.01420  -0.00257   0.04643
           A5          -0.02422   0.00001   0.01212   0.00495   0.02101
           A6          -0.01599   0.00447   0.01856   0.00848   0.01899
           D1          -0.00541   0.00568   0.01059  -0.00149   0.00115
           D2          -0.00806  -0.00449   0.01234   0.00015  -0.00717
           D3           0.01621  -0.00103  -0.00585   0.00641   0.00006
           D4           0.02427   0.00346  -0.01819   0.00626   0.00723
                          A2        A3        A4        A5        A6
           A2           0.24475
           A3          -0.01387   0.23160
           A4           0.01748   0.02973   0.09177
           A5           0.00325  -0.00205  -0.00533   0.15187
           A6          -0.00101  -0.00285  -0.00418  -0.00928   0.24551
           D1          -0.00451  -0.00748   0.00542  -0.00035   0.00427
           D2           0.00014  -0.00470   0.01450   0.00164  -0.00343
           D3           0.00178   0.01022  -0.00942  -0.00190   0.00005
           D4           0.00165   0.01492  -0.02392  -0.00355   0.00349
                          D1        D2        D3        D4
           D1           0.02611
           D2          -0.00195   0.01347
           D3          -0.00224  -0.00546   0.00717
           D4          -0.00029  -0.01662   0.01033   0.02925
 ITU=  1  1  1  1  0
     Eigenvalues ---    0.04057   0.07544   0.10096   0.13081   0.19036
     Eigenvalues ---    0.22695   0.23887   0.34753   0.52995
 En-DIIS/RFO-DIIS IScMMF=        0 using points:     5    4
 RFO step:  Lambda=-2.84848885D-07.
 DidBck=F Rises=F RFO-DIIS coefs:    0.89810    0.10190
 Iteration  1 RMS(Cart)=  0.00100061 RMS(Int)=  0.00000099
 Iteration  2 RMS(Cart)=  0.00000071 RMS(Int)=  0.00000055
 Variable       Old X    -DE/DX   Delta X   Delta X   Delta X     New X
                                  (DIIS)     (GDIIS)  (Total)
    R1        4.21173   0.00005  -0.00098   0.00046  -0.00052   4.21121
    R2        2.05236   0.00002  -0.00008   0.00015   0.00006   2.05243
    R3        2.60729   0.00013   0.00043  -0.00002   0.00041   2.60770
    R4        3.79166   0.00005   0.00087  -0.00024   0.00063   3.79229
    A1        1.85691   0.00014   0.00070   0.00164   0.00233   1.85924
    A2        1.91235  -0.00008   0.00001  -0.00056  -0.00055   1.91180
    A3        1.97748  -0.00008   0.00002  -0.00043  -0.00042   1.97706
    A4        1.94733  -0.00007   0.00010  -0.00084  -0.00074   1.94659
    A5        1.85454  -0.00004  -0.00055   0.00002  -0.00053   1.85401
    A6        1.91456   0.00013  -0.00025   0.00020  -0.00005   1.91451
    D1        2.05178   0.00008   0.00093   0.00116   0.00208   2.05386
    D2       -2.03273  -0.00010  -0.00051  -0.00177  -0.00228  -2.03501
    D3        2.14307  -0.00006  -0.00017  -0.00088  -0.00105   2.14202
    D4       -2.10739   0.00004   0.00034   0.00088   0.00123  -2.10616
         Item               Value     Threshold  Converged?
 Maximum Force            0.000139     0.000450     YES
 RMS     Force            0.000084     0.000300     YES
 Maximum Displacement     0.002588     0.001800     NO 
 RMS     Displacement     0.001000     0.001200     YES
 Predicted change in Energy=-5.143659D-07
 GradGradGradGradGradGradGradGradGradGradGradGradGradGradGradGradGradGrad

                          Input orientation:                          
 ---------------------------------------------------------------------
 Center     Atomic      Atomic             Coordinates (Angstroms)
 Number     Number       Type             X           Y           Z
 ---------------------------------------------------------------------
      1          6           0       -1.012988    0.071096    0.232049
      2         53           0        1.063297    0.107547    1.040633
      3          1           0       -1.493097    0.983989    0.572243
      4          9           0       -1.669658   -1.050032    0.696897
      5         35           0       -1.084048    0.113735   -1.773033
 ---------------------------------------------------------------------
                    Distance matrix (angstroms):
                    1          2          3          4          5
     1  C    0.000000
     2  I    2.228474   0.000000
     3  H    1.086099   2.742752   0.000000
     4  F    1.379937   2.987840   2.045472   0.000000
     5  Br   2.006793   3.539470   2.534755   2.792462   0.000000
 Stoichiometry    CHBrFI
 Framework group  C1[X(CHBrFI)]
 Deg. of freedom     9
 Full point group                 C1      NOp   1
 Largest Abelian subgroup         C1      NOp   1
 Largest concise Abelian subgroup C1      NOp   1
                         Standard orientation:                         
 ---------------------------------------------------------------------
 Center     Atomic      Atomic             Coordinates (Angstroms)
 Number     Number       Type             X           Y           Z
 ---------------------------------------------------------------------
      1          6           0        0.460954    0.769684    0.438710
      2         53           0       -1.499094   -0.187018   -0.018492
      3          1           0        0.495143    0.904524    1.515863
      4          9           0        0.552022    1.975650   -0.225805
      5         35           0        2.034940   -0.382615   -0.032452
 ---------------------------------------------------------------------
 Rotational constants (GHZ):      4.8777520      0.8079487      0.7040761
 Standard basis: 3-21G (6D, 7F)
 There are    76 symmetry adapted basis functions of A   symmetry.
 Integral buffers will be    131072 words long.
 Raffenetti 2 integral format.
 Two-electron integral symmetry is turned on.
    76 basis functions,   177 primitive gaussians,    76 cartesian basis functions
    52 alpha electrons       52 beta electrons
       nuclear repulsion energy       595.8915998492 Hartrees.
 NAtoms=    5 NActive=    5 NUniq=    5 SFac= 1.00D+00 NAtFMM=   50 NAOKFM=F Big=F
 One-electron integrals computed using PRISM.
 NBasis=    76 RedAO= T  NBF=    76
 NBsUse=    76 1.00D-06 NBFU=    76
 Defaulting to unpruned grid for atomic number  53.
 Initial guess read from the read-write file.
 B after Tr=     0.000000    0.000000    0.000000
         Rot=    1.000000    0.000000    0.000000    0.000000 Ang=   0.00 deg.
 Initial guess orbital symmetries:
       Occupied  (A) (A) (A) (A) (A) (A) (A) (A) (A) (A) (A) (A)
                 (A) (A) (A) (A) (A) (A) (A) (A) (A) (A) (A) (A)
                 (A) (A) (A) (A) (A) (A) (A) (A) (A) (A) (A) (A)
                 (A) (A) (A) (A) (A) (A) (A) (A) (A) (A) (A) (A)
                 (A) (A) (A) (A)
       Virtual   (A) (A) (A) (A) (A) (A) (A) (A) (A) (A) (A) (A)
                 (A) (A) (A) (A) (A) (A) (A) (A) (A) (A) (A) (A)
 Requested convergence on RMS density matrix=1.00D-08 within 128 cycles.
 Requested convergence on MAX density matrix=1.00D-06.
 Requested convergence on             energy=1.00D-06.
 No special actions if energy rises.
 Keep R1 ints in memory in canonical form, NReq=5269518.
 Defaulting to unpruned grid for atomic number  53.
 Defaulting to unpruned grid for atomic number  53.
 Defaulting to unpruned grid for atomic number  53.
 Defaulting to unpruned grid for atomic number  53.
 SCF Done:  E(RB3LYP) =  -9590.12967553     A.U. after    8 cycles
             Convg  =    0.2179D-08             -V/T =  2.0019
 Calling FoFJK, ICntrl=      2127 FMM=F ISym2X=0 I1Cent= 0 IOpClX= 0 NMat=1 NMatS=1 NMatT=0.
 Defaulting to unpruned grid for atomic number  53.
 Defaulting to unpruned grid for atomic number  53.
 Defaulting to unpruned grid for atomic number  53.
 Defaulting to unpruned grid for atomic number  53.
 ***** Axes restored to original set *****
 -------------------------------------------------------------------
 Center     Atomic                   Forces (Hartrees/Bohr)
 Number     Number              X              Y              Z
 -------------------------------------------------------------------
      1        6          -0.000023581    0.000033607   -0.000033376
      2       53           0.000049158    0.000044458   -0.000020815
      3        1          -0.000033569   -0.000005400   -0.000019256
      4        9           0.000025419   -0.000039968    0.000075029
      5       35          -0.000017427   -0.000032697   -0.000001582
 -------------------------------------------------------------------
 Cartesian Forces:  Max     0.000075029 RMS     0.000035024

 GradGradGradGradGradGradGradGradGradGradGradGradGradGradGradGradGradGrad
 Berny optimization.
 Using GEDIIS/GDIIS optimizer.
 Internal  Forces:  Max     0.000052717 RMS     0.000024667
 Search for a local minimum.
 Step number   6 out of a maximum of   24
 All quantities printed in internal units (Hartrees-Bohrs-Radians)
 Mixed Optimization -- En-DIIS/RFO-DIIS
 Swaping is turned off.
 Update second derivatives using D2CorX and points    1    2    3    4    5
                                                      6
 DE= -7.44D-07 DEPred=-5.14D-07 R= 1.45D+00
 Trust test= 1.45D+00 RLast= 4.44D-03 DXMaxT set to 5.05D-01
 The second derivative matrix:
                          R1        R2        R3        R4        A1
           R1           0.14860
           R2           0.00252   0.34758
           R3           0.03852   0.00458   0.52556
           R4           0.03691   0.00211  -0.00711   0.16361
           A1           0.01706  -0.01275  -0.02543  -0.01305   0.07609
           A2          -0.00021   0.00483   0.00341  -0.00822   0.01822
           A3           0.00589   0.00353   0.01462   0.00305   0.00647
           A4           0.00526   0.00645  -0.01136  -0.00138   0.04434
           A5          -0.02482  -0.00039   0.01181   0.00481   0.01863
           A6          -0.02003   0.00404   0.01530   0.00782   0.01362
           D1          -0.00964   0.00701   0.00631  -0.00419  -0.00068
           D2          -0.00649  -0.00520   0.01543   0.00017  -0.00735
           D3           0.01447  -0.00372  -0.00762   0.00711  -0.00861
           D4           0.02096   0.00148  -0.02305   0.00694  -0.00126
                          A2        A3        A4        A5        A6
           A2           0.21729
           A3          -0.03440   0.21576
           A4           0.01411   0.03048   0.09478
           A5           0.00458  -0.00041  -0.00438   0.15216
           A6           0.00974   0.00234  -0.00636  -0.01044   0.24525
           D1           0.00274  -0.00573   0.00249  -0.00089   0.00549
           D2          -0.00688  -0.00707   0.01918   0.00339  -0.00558
           D3           0.00694   0.01629  -0.00518  -0.00158  -0.00593
           D4           0.01382   0.02336  -0.02436  -0.00497  -0.00036
                          D1        D2        D3        D4
           D1           0.02830
           D2          -0.00500   0.01924
           D3          -0.00736   0.00021   0.00994
           D4          -0.00236  -0.01673   0.00743   0.02646
 ITU=  0  1  1  1  1  0
     Eigenvalues ---    0.04152   0.07400   0.10043   0.12704   0.18870
     Eigenvalues ---    0.21302   0.23363   0.34771   0.53101
 En-DIIS/RFO-DIIS IScMMF=        0 using points:     6    5    4
 RFO step:  Lambda=-1.87142923D-08.
 DidBck=F Rises=F RFO-DIIS coefs:    1.18767   -0.17055   -0.01711
 Iteration  1 RMS(Cart)=  0.00020753 RMS(Int)=  0.00000009
 Iteration  2 RMS(Cart)=  0.00000002 RMS(Int)=  0.00000009
 Variable       Old X    -DE/DX   Delta X   Delta X   Delta X     New X
                                  (DIIS)     (GDIIS)  (Total)
    R1        4.21121   0.00004   0.00007   0.00019   0.00026   4.21147
    R2        2.05243   0.00001   0.00003  -0.00001   0.00002   2.05245
    R3        2.60770   0.00004   0.00001   0.00007   0.00008   2.60778
    R4        3.79229   0.00000  -0.00003   0.00001  -0.00002   3.79227
    A1        1.85924   0.00002   0.00032  -0.00005   0.00027   1.85951
    A2        1.91180  -0.00003  -0.00010  -0.00010  -0.00021   1.91159
    A3        1.97706  -0.00002  -0.00008  -0.00007  -0.00015   1.97691
    A4        1.94659  -0.00001  -0.00016   0.00008  -0.00008   1.94651
    A5        1.85401  -0.00002  -0.00001  -0.00005  -0.00005   1.85396
    A6        1.91451   0.00005   0.00003   0.00019   0.00022   1.91473
    D1        2.05386   0.00000   0.00024  -0.00008   0.00015   2.05401
    D2       -2.03501  -0.00001  -0.00034   0.00013  -0.00021  -2.03522
    D3        2.14202  -0.00001  -0.00017  -0.00004  -0.00021   2.14180
    D4       -2.10616   0.00000   0.00017  -0.00017   0.00000  -2.10616
         Item               Value     Threshold  Converged?
 Maximum Force            0.000053     0.000450     YES
 RMS     Force            0.000025     0.000300     YES
 Maximum Displacement     0.000444     0.001800     YES
 RMS     Displacement     0.000208     0.001200     YES
 Predicted change in Energy=-2.274048D-08
 Optimization completed.
    -- Stationary point found.
                           ----------------------------
                           !   Optimized Parameters   !
                           ! (Angstroms and Degrees)  !
 --------------------------                            --------------------------
 ! Name  Definition              Value          Derivative Info.                !
 --------------------------------------------------------------------------------
 ! R1    R(1,2)                  2.2285         -DE/DX =    0.0                 !
 ! R2    R(1,3)                  1.0861         -DE/DX =    0.0                 !
 ! R3    R(1,4)                  1.3799         -DE/DX =    0.0                 !
 ! R4    R(1,5)                  2.0068         -DE/DX =    0.0                 !
 ! A1    A(2,1,3)              106.5266         -DE/DX =    0.0                 !
 ! A2    A(2,1,4)              109.538          -DE/DX =    0.0                 !
 ! A3    A(2,1,5)              113.277          -DE/DX =    0.0                 !
 ! A4    A(3,1,4)              111.5314         -DE/DX =    0.0                 !
 ! A5    A(3,1,5)              106.2272         -DE/DX =    0.0                 !
 ! A6    A(4,1,5)              109.6934         -DE/DX =    0.0001              !
 ! D1    D(2,1,4,3)            117.6775         -DE/DX =    0.0                 !
 ! D2    D(2,1,5,3)           -116.5973         -DE/DX =    0.0                 !
 ! D3    D(2,1,5,4)            122.7284         -DE/DX =    0.0                 !
 ! D4    D(3,1,5,4)           -120.6742         -DE/DX =    0.0                 !
 --------------------------------------------------------------------------------
 GradGradGradGradGradGradGradGradGradGradGradGradGradGradGradGradGradGrad

                          Input orientation:                          
 ---------------------------------------------------------------------
 Center     Atomic      Atomic             Coordinates (Angstroms)
 Number     Number       Type             X           Y           Z
 ---------------------------------------------------------------------
      1          6           0       -1.012988    0.071096    0.232049
      2         53           0        1.063297    0.107547    1.040633
      3          1           0       -1.493097    0.983989    0.572243
      4          9           0       -1.669658   -1.050032    0.696897
      5         35           0       -1.084048    0.113735   -1.773033
 ---------------------------------------------------------------------
                    Distance matrix (angstroms):
                    1          2          3          4          5
     1  C    0.000000
     2  I    2.228474   0.000000
     3  H    1.086099   2.742752   0.000000
     4  F    1.379937   2.987840   2.045472   0.000000
     5  Br   2.006793   3.539470   2.534755   2.792462   0.000000
 Stoichiometry    CHBrFI
 Framework group  C1[X(CHBrFI)]
 Deg. of freedom     9
 Full point group                 C1      NOp   1
 Largest Abelian subgroup         C1      NOp   1
 Largest concise Abelian subgroup C1      NOp   1
                         Standard orientation:                         
 ---------------------------------------------------------------------
 Center     Atomic      Atomic             Coordinates (Angstroms)
 Number     Number       Type             X           Y           Z
 ---------------------------------------------------------------------
      1          6           0        0.460954    0.769684    0.438710
      2         53           0       -1.499094   -0.187018   -0.018492
      3          1           0        0.495143    0.904524    1.515863
      4          9           0        0.552022    1.975650   -0.225805
      5         35           0        2.034940   -0.382615   -0.032452
 ---------------------------------------------------------------------
 Rotational constants (GHZ):      4.8777520      0.8079487      0.7040761

 **********************************************************************

            Population analysis using the SCF density.

 **********************************************************************

 Orbital symmetries:
       Occupied  (A) (A) (A) (A) (A) (A) (A) (A) (A) (A) (A) (A)
                 (A) (A) (A) (A) (A) (A) (A) (A) (A) (A) (A) (A)
                 (A) (A) (A) (A) (A) (A) (A) (A) (A) (A) (A) (A)
                 (A) (A) (A) (A) (A) (A) (A) (A) (A) (A) (A) (A)
                 (A) (A) (A) (A)
       Virtual   (A) (A) (A) (A) (A) (A) (A) (A) (A) (A) (A) (A)
                 (A) (A) (A) (A) (A) (A) (A) (A) (A) (A) (A) (A)
 The electronic state is 1-A.
 Alpha  occ. eigenvalues -- **********-479.55778-175.58103-164.34415-164.34167
 Alpha  occ. eigenvalues -- -164.34166 -62.11245 -55.71682 -55.71214 -55.71206
 Alpha  occ. eigenvalues --  -35.74558 -30.90934 -30.90276 -30.90271 -24.59419
 Alpha  occ. eigenvalues --  -22.83448 -22.83239 -22.83236 -22.82768 -22.82768
 Alpha  occ. eigenvalues --  -10.31279  -8.62829  -6.42360  -6.40702  -6.40674
 Alpha  occ. eigenvalues --   -6.37767  -4.68773  -4.67080  -4.67069  -2.51691
 Alpha  occ. eigenvalues --   -2.51060  -2.51040  -2.49722  -2.49721  -2.06547
 Alpha  occ. eigenvalues --   -2.06022  -2.06013  -2.04574  -2.04573  -1.23407
 Alpha  occ. eigenvalues --   -0.81889  -0.71282  -0.63398  -0.53770  -0.48616
 Alpha  occ. eigenvalues --   -0.47452  -0.37074  -0.34869  -0.30350  -0.29179
 Alpha  occ. eigenvalues --   -0.27415  -0.26771
 Alpha virt. eigenvalues --   -0.08461  -0.01735   0.10307   0.12135   0.34043
 Alpha virt. eigenvalues --    0.38317   0.40163   0.40429   0.57526   0.61353
 Alpha virt. eigenvalues --    0.61913   0.67692   0.70605   0.75396   0.82187
 Alpha virt. eigenvalues --    0.96896   1.45854   1.89084   1.90683   2.00868
 Alpha virt. eigenvalues --    3.44190   4.10881  23.49675 225.77598
          Condensed to atoms (all electrons):
              1          2          3          4          5
     1  C    5.478920   0.198042   0.292203   0.194441   0.170274
     2  I    0.198042  52.738325  -0.042816  -0.023178  -0.046515
     3  H    0.292203  -0.042816   0.536865  -0.028210  -0.045612
     4  F    0.194441  -0.023178  -0.028210   9.121916  -0.028524
     5  Br   0.170274  -0.046515  -0.045612  -0.028524  34.843762
 Mulliken atomic charges:
              1
     1  C   -0.333881
     2  I    0.176142
     3  H    0.287571
     4  F   -0.236446
     5  Br   0.106614
 Sum of Mulliken atomic charges =   0.00000
 Mulliken charges with hydrogens summed into heavy atoms:
              1
     1  C   -0.046310
     2  I    0.176142
     4  F   -0.236446
     5  Br   0.106614
 Sum of Mulliken charges with hydrogens summed into heavy atoms =   0.00000
 Electronic spatial extent (au):  <R**2>=           1265.8730
 Charge=              0.0000 electrons
 Dipole moment (field-independent basis, Debye):
    X=             -0.1121    Y=             -0.1370    Z=              1.3811  Tot=              1.3924
 Quadrupole moment (field-independent basis, Debye-Ang):
   XX=            -56.7112   YY=            -58.7725   ZZ=            -56.1458
   XY=              0.2788   XZ=              0.8966   YZ=              1.8487
 Traceless Quadrupole moment (field-independent basis, Debye-Ang):
   XX=              0.4986   YY=             -1.5626   ZZ=              1.0640
   XY=              0.2788   XZ=              0.8966   YZ=              1.8487
 Octapole moment (field-independent basis, Debye-Ang**2):
  XXX=             -3.9554  YYY=             -9.6553  ZZZ=             -0.5980  XYY=              0.3284
  XXY=             -9.0029  XXZ=             -4.0733  XZZ=              1.7864  YZZ=              0.3014
  YYZ=              0.1516  XYZ=              0.8489
 Hexadecapole moment (field-independent basis, Debye-Ang**3):
 XXXX=           -864.1027 YYYY=           -223.2705 ZZZZ=            -78.2022 XXXY=             -4.3213
 XXXZ=             -1.8216 YYYX=             -6.5895 YYYZ=             -0.4229 ZZZX=             -0.1026
 ZZZY=             -0.3342 XXYY=           -180.6151 XXZZ=           -167.2736 YYZZ=            -48.1203
 XXYZ=              2.4798 YYXZ=             -0.0328 ZZXY=             -0.1109
 N-N= 5.958915998492D+02 E-N=-2.400027745009D+04  KE= 9.571762652688D+03

 Test job not archived.
 1\1\GINC-TERMINUS\FOpt\RB3LYP\3-21G\C1H1Br1F1I1\FRODOX\05-Jan-2018\0\\
 #B3LYP/3-21G fopt test\\SymmetricEnantiomers/r-enan_rotated.xyz\\0,1\C
 ,-1.0129879172,0.0710955839,0.232048521\I,1.063297003,0.107546626,1.04
 06328233\H,-1.4930966241,0.9839889294,0.5722429784\F,-1.6696579871,-1.
 0500323832,0.6968965988\Br,-1.0840484746,0.1137354439,-1.7730329216\\V
 ersion=EM64L-G09RevB.01\State=1-A\HF=-9590.1296755\RMSD=2.179e-09\RMSF
 =3.502e-05\Dipole=-0.119261,0.5142096,0.1464995\Quadrupole=0.8183215,-
 0.660409,-0.1579125,-1.5496737,0.1406712,0.6681314\PG=C01 [X(C1H1Br1F1
 I1)]\\@


 TRUST EVERYONE, BUT CUT THE CARDS.
 Job cpu time:  0 days  0 hours  0 minutes 35.3 seconds.
 File lengths (MBytes):  RWF=      9 Int=      0 D2E=      0 Chk=      1 Scr=      1
 Normal termination of Gaussian 09 at Fri Jan  5 13:34:39 2018.
