 Entering Gaussian System, Link 0=g09
 Input=s-tmp_rotated.inp
 Output=s-tmp_rotated.log
 Initial command:
 /usr/local/g09/l1.exe /home/g09scr/Gau-18937.inp -scrdir=/home/g09scr/
 Entering Link 1 = /usr/local/g09/l1.exe PID=     18939.
  
 Copyright (c) 1988,1990,1992,1993,1995,1998,2003,2009,2010,
            Gaussian, Inc.  All Rights Reserved.
  
 This is part of the Gaussian(R) 09 program.  It is based on
 the Gaussian(R) 03 system (copyright 2003, Gaussian, Inc.),
 the Gaussian(R) 98 system (copyright 1998, Gaussian, Inc.),
 the Gaussian(R) 94 system (copyright 1995, Gaussian, Inc.),
 the Gaussian 92(TM) system (copyright 1992, Gaussian, Inc.),
 the Gaussian 90(TM) system (copyright 1990, Gaussian, Inc.),
 the Gaussian 88(TM) system (copyright 1988, Gaussian, Inc.),
 the Gaussian 86(TM) system (copyright 1986, Carnegie Mellon
 University), and the Gaussian 82(TM) system (copyright 1983,
 Carnegie Mellon University). Gaussian is a federally registered
 trademark of Gaussian, Inc.
  
 This software contains proprietary and confidential information,
 including trade secrets, belonging to Gaussian, Inc.
  
 This software is provided under written license and may be
 used, copied, transmitted, or stored only in accord with that
 written license.
  
 The following legend is applicable only to US Government
 contracts under FAR:
  
                    RESTRICTED RIGHTS LEGEND
  
 Use, reproduction and disclosure by the US Government is
 subject to restrictions as set forth in subparagraphs (a)
 and (c) of the Commercial Computer Software - Restricted
 Rights clause in FAR 52.227-19.
  
 Gaussian, Inc.
 340 Quinnipiac St., Bldg. 40, Wallingford CT 06492
  
  
 ---------------------------------------------------------------
 Warning -- This program may not be used in any manner that
 competes with the business of Gaussian, Inc. or will provide
 assistance to any competitor of Gaussian, Inc.  The licensee
 of this program is prohibited from giving any competitor of
 Gaussian, Inc. access to this program.  By using this program,
 the user acknowledges that Gaussian, Inc. is engaged in the
 business of creating and licensing software in the field of
 computational chemistry and represents and warrants to the
 licensee that it is not a competitor of Gaussian, Inc. and that
 it will not use this program in any manner prohibited above.
 ---------------------------------------------------------------
  

 Cite this work as:
 Gaussian 09, Revision B.01,
 M. J. Frisch, G. W. Trucks, H. B. Schlegel, G. E. Scuseria, 
 M. A. Robb, J. R. Cheeseman, G. Scalmani, V. Barone, B. Mennucci, 
 G. A. Petersson, H. Nakatsuji, M. Caricato, X. Li, H. P. Hratchian, 
 A. F. Izmaylov, J. Bloino, G. Zheng, J. L. Sonnenberg, M. Hada, 
 M. Ehara, K. Toyota, R. Fukuda, J. Hasegawa, M. Ishida, T. Nakajima, 
 Y. Honda, O. Kitao, H. Nakai, T. Vreven, J. A. Montgomery, Jr., 
 J. E. Peralta, F. Ogliaro, M. Bearpark, J. J. Heyd, E. Brothers, 
 K. N. Kudin, V. N. Staroverov, T. Keith, R. Kobayashi, J. Normand, 
 K. Raghavachari, A. Rendell, J. C. Burant, S. S. Iyengar, J. Tomasi, 
 M. Cossi, N. Rega, J. M. Millam, M. Klene, J. E. Knox, J. B. Cross, 
 V. Bakken, C. Adamo, J. Jaramillo, R. Gomperts, R. E. Stratmann, 
 O. Yazyev, A. J. Austin, R. Cammi, C. Pomelli, J. W. Ochterski, 
 R. L. Martin, K. Morokuma, V. G. Zakrzewski, G. A. Voth, 
 P. Salvador, J. J. Dannenberg, S. Dapprich, A. D. Daniels, 
 O. Farkas, J. B. Foresman, J. V. Ortiz, J. Cioslowski, 
 and D. J. Fox, Gaussian, Inc., Wallingford CT, 2010.
 
 ******************************************
 Gaussian 09:  EM64L-G09RevB.01 12-Aug-2010
                 5-Jan-2018 
 ******************************************
 %nproc=4
 Will use up to    4 processors via shared memory.
 %mem=60gb
 ----------------------
 #B3LYP/3-21G fopt test
 ----------------------
 1/14=-1,18=20,19=15,26=3,38=1/1,3;
 2/9=110,12=2,14=103,17=6,18=5,40=1/2;
 3/5=5,11=2,16=1,25=1,30=1,71=1,74=-5/1,2,3;
 4//1;
 5/5=2,38=5/2;
 6/7=2,8=2,9=2,10=2,28=1/1;
 7//1,2,3,16;
 1/14=-1,18=20,19=15/3(2);
 2/9=110/2;
 99//99;
 2/9=110/2;
 3/5=5,11=2,16=1,25=1,30=1,71=1,74=-5/1,2,3;
 4/5=5,16=3/1;
 5/5=2,38=5/2;
 7//1,2,3,16;
 1/14=-1,18=20,19=15/3(-5);
 2/9=110/2;
 6/7=2,8=2,9=2,10=2,19=2,28=1/1;
 99/9=1/99;
 --------------------------------------
 SymmetricEnantiomers/s-tmp_rotated.xyz
 --------------------------------------
 Symbolic Z-matrix:
 Charge =  0 Multiplicity = 1
 C                     0.75099   0.21583  -0.6635 
 F                     1.31443  -0.82346  -1.33382 
 Br                    1.59954   0.39152   1.07743 
 I                    -1.28267  -0.15269  -0.40629 
 H                     0.96878   1.13518  -1.21214 
 

 GradGradGradGradGradGradGradGradGradGradGradGradGradGradGradGradGradGrad
 Berny optimization.
 Initialization pass.
                           ----------------------------
                           !    Initial Parameters    !
                           ! (Angstroms and Degrees)  !
 --------------------------                            --------------------------
 ! Name  Definition              Value          Derivative Info.                !
 --------------------------------------------------------------------------------
 ! R1    R(1,2)                  1.359          estimate D2E/DX2                !
 ! R2    R(1,3)                  1.9447         estimate D2E/DX2                !
 ! R3    R(1,4)                  2.0827         estimate D2E/DX2                !
 ! R4    R(1,5)                  1.0925         estimate D2E/DX2                !
 ! A1    A(2,1,3)              109.2531         estimate D2E/DX2                !
 ! A2    A(2,1,4)              109.2949         estimate D2E/DX2                !
 ! A3    A(2,1,5)              108.2506         estimate D2E/DX2                !
 ! A4    A(3,1,4)              109.3595         estimate D2E/DX2                !
 ! A5    A(3,1,5)              106.6515         estimate D2E/DX2                !
 ! A6    A(4,1,5)              113.9263         estimate D2E/DX2                !
 ! D1    D(2,1,4,3)            119.5587         estimate D2E/DX2                !
 ! D2    D(2,1,5,3)           -117.4539         estimate D2E/DX2                !
 ! D3    D(2,1,5,4)            121.7999         estimate D2E/DX2                !
 ! D4    D(3,1,5,4)           -120.7462         estimate D2E/DX2                !
 --------------------------------------------------------------------------------
 Trust Radius=3.00D-01 FncErr=1.00D-07 GrdErr=1.00D-06
 Number of steps in this run=     24 maximum allowed number of steps=    100.
 GradGradGradGradGradGradGradGradGradGradGradGradGradGradGradGradGradGrad

                          Input orientation:                          
 ---------------------------------------------------------------------
 Center     Atomic      Atomic             Coordinates (Angstroms)
 Number     Number       Type             X           Y           Z
 ---------------------------------------------------------------------
      1          6           0        0.750985    0.215834   -0.663502
      2          9           0        1.314430   -0.823457   -1.333820
      3         35           0        1.599540    0.391524    1.077430
      4         53           0       -1.282670   -0.152688   -0.406289
      5          1           0        0.968779    1.135180   -1.212140
 ---------------------------------------------------------------------
                    Distance matrix (angstroms):
                    1          2          3          4          5
     1  C    0.000000
     2  F    1.359015   0.000000
     3  Br   1.944674   2.715068   0.000000
     4  I    2.082719   2.838164   3.287054   0.000000
     5  H    1.092536   1.992621   2.488577   2.716067   0.000000
 Stoichiometry    CHBrFI
 Framework group  C1[X(CHBrFI)]
 Deg. of freedom     9
 Full point group                 C1      NOp   1
 Largest Abelian subgroup         C1      NOp   1
 Largest concise Abelian subgroup C1      NOp   1
                         Standard orientation:                         
 ---------------------------------------------------------------------
 Center     Atomic      Atomic             Coordinates (Angstroms)
 Number     Number       Type             X           Y           Z
 ---------------------------------------------------------------------
      1          6           0        0.398820    0.771850    0.454358
      2          9           0        0.479911    1.936074   -0.242010
      3         35           0        1.894546   -0.371808   -0.032063
      4         53           0       -1.387416   -0.189482   -0.017786
      5          1           0        0.511802    1.000070    1.516802
 ---------------------------------------------------------------------
 Rotational constants (GHZ):      5.0201538      0.9368710      0.8045211
 Standard basis: 3-21G (6D, 7F)
 There are    76 symmetry adapted basis functions of A   symmetry.
 Integral buffers will be    131072 words long.
 Raffenetti 2 integral format.
 Two-electron integral symmetry is turned on.
    76 basis functions,   177 primitive gaussians,    76 cartesian basis functions
    52 alpha electrons       52 beta electrons
       nuclear repulsion energy       630.9982634307 Hartrees.
 NAtoms=    5 NActive=    5 NUniq=    5 SFac= 1.00D+00 NAtFMM=   50 NAOKFM=F Big=F
 One-electron integrals computed using PRISM.
 NBasis=    76 RedAO= T  NBF=    76
 NBsUse=    76 1.00D-06 NBFU=    76
 Defaulting to unpruned grid for atomic number  53.
 Harris functional with IExCor=  402 diagonalized for initial guess.
 ExpMin= 1.15D-01 ExpMax= 1.44D+04 ExpMxC= 1.44D+04 IAcc=1 IRadAn=         1 AccDes= 0.00D+00
 HarFok:  IExCor=  402 AccDes= 0.00D+00 IRadAn=         1 IDoV= 1
 ScaDFX=  1.000000  1.000000  1.000000  1.000000
 Defaulting to unpruned grid for atomic number  53.
 Defaulting to unpruned grid for atomic number  53.
 Defaulting to unpruned grid for atomic number  53.
 Defaulting to unpruned grid for atomic number  53.
 FoFCou: FMM=F IPFlag=           0 FMFlag=      100000 FMFlg1=           0
         NFxFlg=           0 DoJE=T BraDBF=F KetDBF=T FulRan=T
         Omega=  0.000000  0.000000  1.000000  0.000000  0.000000 ICntrl=     500 IOpCl=  0
         NMat0=    1 NMatS0=    1 NMatT0=    0 NMatD0=    1 NMtDS0=    0 NMtDT0=    0
         I1Cent=           4 NGrid=           0.
 Petite list used in FoFCou.
 Initial guess orbital symmetries:
       Occupied  (A) (A) (A) (A) (A) (A) (A) (A) (A) (A) (A) (A)
                 (A) (A) (A) (A) (A) (A) (A) (A) (A) (A) (A) (A)
                 (A) (A) (A) (A) (A) (A) (A) (A) (A) (A) (A) (A)
                 (A) (A) (A) (A) (A) (A) (A) (A) (A) (A) (A) (A)
                 (A) (A) (A) (A)
       Virtual   (A) (A) (A) (A) (A) (A) (A) (A) (A) (A) (A) (A)
                 (A) (A) (A) (A) (A) (A) (A) (A) (A) (A) (A) (A)
 The electronic state of the initial guess is 1-A.
 Requested convergence on RMS density matrix=1.00D-08 within 128 cycles.
 Requested convergence on MAX density matrix=1.00D-06.
 Requested convergence on             energy=1.00D-06.
 No special actions if energy rises.
 Keep R1 ints in memory in canonical form, NReq=5269511.
 Integral accuracy reduced to 1.0D-05 until final iterations.
 Defaulting to unpruned grid for atomic number  53.
 Defaulting to unpruned grid for atomic number  53.
 Defaulting to unpruned grid for atomic number  53.
 Defaulting to unpruned grid for atomic number  53.
 Initial convergence to 1.0D-05 achieved.  Increase integral accuracy.
 SCF Done:  E(RB3LYP) =  -9590.11963155     A.U. after   15 cycles
             Convg  =    0.2586D-08             -V/T =  2.0019

 **********************************************************************

            Population analysis using the SCF density.

 **********************************************************************

 Orbital symmetries:
       Occupied  (A) (A) (A) (A) (A) (A) (A) (A) (A) (A) (A) (A)
                 (A) (A) (A) (A) (A) (A) (A) (A) (A) (A) (A) (A)
                 (A) (A) (A) (A) (A) (A) (A) (A) (A) (A) (A) (A)
                 (A) (A) (A) (A) (A) (A) (A) (A) (A) (A) (A) (A)
                 (A) (A) (A) (A)
       Virtual   (A) (A) (A) (A) (A) (A) (A) (A) (A) (A) (A) (A)
                 (A) (A) (A) (A) (A) (A) (A) (A) (A) (A) (A) (A)
 The electronic state is 1-A.
 Alpha  occ. eigenvalues -- **********-479.55284-175.58318-164.34630-164.34379
 Alpha  occ. eigenvalues -- -164.34376 -62.10821 -55.71247 -55.70783 -55.70773
 Alpha  occ. eigenvalues --  -35.74788 -30.91165 -30.90510 -30.90499 -24.58359
 Alpha  occ. eigenvalues --  -22.83702 -22.83476 -22.83467 -22.82997 -22.82997
 Alpha  occ. eigenvalues --  -10.30160  -8.62463  -6.41997  -6.40344  -6.40298
 Alpha  occ. eigenvalues --   -6.38091  -4.69144  -4.67398  -4.67374  -2.51370
 Alpha  occ. eigenvalues --   -2.50711  -2.50682  -2.49356  -2.49354  -2.06986
 Alpha  occ. eigenvalues --   -2.06398  -2.06381  -2.04889  -2.04887  -1.23780
 Alpha  occ. eigenvalues --   -0.83473  -0.72325  -0.63339  -0.53862  -0.49104
 Alpha  occ. eigenvalues --   -0.47753  -0.37056  -0.35033  -0.30587  -0.29290
 Alpha  occ. eigenvalues --   -0.27534  -0.26219
 Alpha virt. eigenvalues --   -0.05756   0.00254   0.10546   0.13514   0.33360
 Alpha virt. eigenvalues --    0.38920   0.39990   0.40195   0.58337   0.62085
 Alpha virt. eigenvalues --    0.62460   0.67166   0.71769   0.76431   0.81045
 Alpha virt. eigenvalues --    0.96766   1.49757   1.90121   1.92320   2.01556
 Alpha virt. eigenvalues --    3.48925   4.13626  23.55855 225.78571
          Condensed to atoms (all electrons):
              1          2          3          4          5
     1  C    5.629539   0.178342   0.147885   0.182893   0.300212
     2  F    0.178342   9.166237  -0.033187  -0.028330  -0.032543
     3  Br   0.147885  -0.033187  34.879167  -0.074990  -0.049803
     4  I    0.182893  -0.028330  -0.074990  52.687855  -0.038901
     5  H    0.300212  -0.032543  -0.049803  -0.038901   0.534050
 Mulliken atomic charges:
              1
     1  C   -0.438871
     2  F   -0.250518
     3  Br   0.130929
     4  I    0.271474
     5  H    0.286986
 Sum of Mulliken atomic charges =   0.00000
 Mulliken charges with hydrogens summed into heavy atoms:
              1
     1  C   -0.151885
     2  F   -0.250518
     3  Br   0.130929
     4  I    0.271474
 Sum of Mulliken charges with hydrogens summed into heavy atoms =   0.00000
 Electronic spatial extent (au):  <R**2>=           1127.7089
 Charge=              0.0000 electrons
 Dipole moment (field-independent basis, Debye):
    X=             -0.3142    Y=             -0.2006    Z=              1.3452  Tot=              1.3959
 Quadrupole moment (field-independent basis, Debye-Ang):
   XX=            -56.9518   YY=            -58.5287   ZZ=            -55.9185
   XY=              0.4282   XZ=              0.9922   YZ=              2.0515
 Traceless Quadrupole moment (field-independent basis, Debye-Ang):
   XX=              0.1812   YY=             -1.3957   ZZ=              1.2145
   XY=              0.4282   XZ=              0.9922   YZ=              2.0515
 Octapole moment (field-independent basis, Debye-Ang**2):
  XXX=             -4.3714  YYY=             -9.9820  ZZZ=             -0.8075  XYY=              0.0876
  XXY=             -8.4749  XXZ=             -4.4075  XZZ=              1.5947  YZZ=              0.3534
  YYZ=              0.3187  XYZ=              0.8296
 Hexadecapole moment (field-independent basis, Debye-Ang**3):
 XXXX=           -757.6622 YYYY=           -218.6384 ZZZZ=            -78.2679 XXXY=             -2.3818
 XXXZ=             -0.9669 YYYX=             -5.6789 YYYZ=              0.0615 ZZZX=              0.3118
 ZZZY=             -0.1211 XXYY=           -159.6380 XXZZ=           -146.5760 YYZZ=            -46.9916
 XXYZ=              2.8519 YYXZ=              0.2322 ZZXY=              0.2135
 N-N= 6.309982634307D+02 E-N=-2.407075744824D+04  KE= 9.572142959452D+03
 Calling FoFJK, ICntrl=      2127 FMM=F ISym2X=0 I1Cent= 0 IOpClX= 0 NMat=1 NMatS=1 NMatT=0.
 Defaulting to unpruned grid for atomic number  53.
 Defaulting to unpruned grid for atomic number  53.
 Defaulting to unpruned grid for atomic number  53.
 Defaulting to unpruned grid for atomic number  53.
 ***** Axes restored to original set *****
 -------------------------------------------------------------------
 Center     Atomic                   Forces (Hartrees/Bohr)
 Number     Number              X              Y              Z
 -------------------------------------------------------------------
      1        6           0.022242569    0.021307162   -0.009499490
      2        9           0.014114915   -0.023846709   -0.015686623
      3       35           0.019651669    0.005814752    0.023434673
      4       53          -0.048299363   -0.003843766   -0.002206874
      5        1          -0.007709790    0.000568562    0.003958315
 -------------------------------------------------------------------
 Cartesian Forces:  Max     0.048299363 RMS     0.019061345

 GradGradGradGradGradGradGradGradGradGradGradGradGradGradGradGradGradGrad
 Berny optimization.
 Internal  Forces:  Max     0.047567016 RMS     0.018861061
 Search for a local minimum.
 Step number   1 out of a maximum of   24
 All quantities printed in internal units (Hartrees-Bohrs-Radians)
 Mixed Optimization -- RFO/linear search
 Second derivative matrix not updated -- first step.
 The second derivative matrix:
                          R1        R2        R3        R4        A1
           R1           0.53147
           R2           0.00000   0.16232
           R3           0.00000   0.00000   0.14613
           R4           0.00000   0.00000   0.00000   0.34521
           A1           0.00000   0.00000   0.00000   0.00000   0.25000
           A2           0.00000   0.00000   0.00000   0.00000   0.00000
           A3           0.00000   0.00000   0.00000   0.00000   0.00000
           A4           0.00000   0.00000   0.00000   0.00000   0.00000
           A5           0.00000   0.00000   0.00000   0.00000   0.00000
           A6           0.00000   0.00000   0.00000   0.00000   0.00000
           D1           0.00000   0.00000   0.00000   0.00000   0.00000
           D2           0.00000   0.00000   0.00000   0.00000   0.00000
           D3           0.00000   0.00000   0.00000   0.00000   0.00000
           D4           0.00000   0.00000   0.00000   0.00000   0.00000
                          A2        A3        A4        A5        A6
           A2           0.25000
           A3           0.00000   0.16000
           A4           0.00000   0.00000   0.25000
           A5           0.00000   0.00000   0.00000   0.16000
           A6           0.00000   0.00000   0.00000   0.00000   0.16000
           D1           0.00000   0.00000   0.00000   0.00000   0.00000
           D2           0.00000   0.00000   0.00000   0.00000   0.00000
           D3           0.00000   0.00000   0.00000   0.00000   0.00000
           D4           0.00000   0.00000   0.00000   0.00000   0.00000
                          D1        D2        D3        D4
           D1           0.00230
           D2           0.00000   0.00230
           D3           0.00000   0.00000   0.00230
           D4           0.00000   0.00000   0.00000   0.00230
 ITU=  0
     Eigenvalues ---    0.06997   0.07282   0.11379   0.14613   0.16232
     Eigenvalues ---    0.18236   0.18605   0.34521   0.53147
 RFO step:  Lambda=-2.42222124D-02 EMin= 6.99708764D-02
 Linear search not attempted -- first point.
 Maximum step size (   0.300) exceeded in Quadratic search.
    -- Step size scaled by   0.847
 Iteration  1 RMS(Cart)=  0.09006110 RMS(Int)=  0.00941371
 Iteration  2 RMS(Cart)=  0.00872618 RMS(Int)=  0.00094860
 Iteration  3 RMS(Cart)=  0.00000611 RMS(Int)=  0.00094858
 Iteration  4 RMS(Cart)=  0.00000000 RMS(Int)=  0.00094858
 Variable       Old X    -DE/DX   Delta X   Delta X   Delta X     New X
                                 (Linear)    (Quad)   (Total)
    R1        2.56817   0.03183   0.00000   0.04850   0.04850   2.61667
    R2        3.67490   0.03008   0.00000   0.13657   0.13657   3.81147
    R3        3.93577   0.04757   0.00000   0.23646   0.23646   4.17223
    R4        2.06459  -0.00305   0.00000  -0.00699  -0.00699   2.05761
    A1        1.90683  -0.00286   0.00000   0.00172   0.00049   1.90732
    A2        1.90756   0.00380   0.00000   0.01599   0.01489   1.92245
    A3        1.88933   0.00680   0.00000   0.01459   0.01555   1.90488
    A4        1.90868   0.01619   0.00000   0.07521   0.07364   1.98232
    A5        1.86142  -0.00653   0.00000  -0.02958  -0.02884   1.83258
    A6        1.98839  -0.01743   0.00000  -0.07737  -0.07709   1.91130
    D1        2.08669   0.00854   0.00000   0.05699   0.05918   2.14587
    D2       -2.04996   0.00333   0.00000   0.00616   0.00695  -2.04301
    D3        2.12581  -0.00175   0.00000  -0.02024  -0.02007   2.10574
    D4       -2.10742  -0.00509   0.00000  -0.02640  -0.02702  -2.13444
         Item               Value     Threshold  Converged?
 Maximum Force            0.047567     0.000450     NO 
 RMS     Force            0.018861     0.000300     NO 
 Maximum Displacement     0.237731     0.001800     NO 
 RMS     Displacement     0.096867     0.001200     NO 
 Predicted change in Energy=-1.300275D-02
 GradGradGradGradGradGradGradGradGradGradGradGradGradGradGradGradGradGrad

                          Input orientation:                          
 ---------------------------------------------------------------------
 Center     Atomic      Atomic             Coordinates (Angstroms)
 Number     Number       Type             X           Y           Z
 ---------------------------------------------------------------------
      1          6           0        0.764239    0.198204   -0.653251
      2          9           0        1.351429   -0.841972   -1.353671
      3         35           0        1.704152    0.423321    1.117042
      4         53           0       -1.408472   -0.144534   -0.462298
      5          1           0        0.939716    1.131373   -1.186143
 ---------------------------------------------------------------------
                    Distance matrix (angstroms):
                    1          2          3          4          5
     1  C    0.000000
     2  F    1.384683   0.000000
     3  Br   2.016942   2.798179   0.000000
     4  I    2.207850   2.982955   3.536269   0.000000
     5  H    1.088839   2.022786   2.527917   2.768732   0.000000
 Stoichiometry    CHBrFI
 Framework group  C1[X(CHBrFI)]
 Deg. of freedom     9
 Full point group                 C1      NOp   1
 Largest Abelian subgroup         C1      NOp   1
 Largest concise Abelian subgroup C1      NOp   1
                         Standard orientation:                         
 ---------------------------------------------------------------------
 Center     Atomic      Atomic             Coordinates (Angstroms)
 Number     Number       Type             X           Y           Z
 ---------------------------------------------------------------------
      1          6           0        0.442744    0.765560    0.434876
      2          9           0        0.543368    1.978403   -0.225604
      3         35           0        2.034923   -0.381175   -0.032050
      4         53           0       -1.496070   -0.188552   -0.018198
      5          1           0        0.522623    0.935393    1.507418
 ---------------------------------------------------------------------
 Rotational constants (GHZ):      4.8729980      0.8099862      0.7053811
 Standard basis: 3-21G (6D, 7F)
 There are    76 symmetry adapted basis functions of A   symmetry.
 Integral buffers will be    131072 words long.
 Raffenetti 2 integral format.
 Two-electron integral symmetry is turned on.
    76 basis functions,   177 primitive gaussians,    76 cartesian basis functions
    52 alpha electrons       52 beta electrons
       nuclear repulsion energy       596.4573454068 Hartrees.
 NAtoms=    5 NActive=    5 NUniq=    5 SFac= 1.00D+00 NAtFMM=   50 NAOKFM=F Big=F
 One-electron integrals computed using PRISM.
 NBasis=    76 RedAO= T  NBF=    76
 NBsUse=    76 1.00D-06 NBFU=    76
 Defaulting to unpruned grid for atomic number  53.
 Initial guess read from the read-write file.
 B after Tr=     0.000000    0.000000    0.000000
         Rot=    1.000000    0.000000    0.000000    0.000000 Ang=   0.00 deg.
 Initial guess orbital symmetries:
       Occupied  (A) (A) (A) (A) (A) (A) (A) (A) (A) (A) (A) (A)
                 (A) (A) (A) (A) (A) (A) (A) (A) (A) (A) (A) (A)
                 (A) (A) (A) (A) (A) (A) (A) (A) (A) (A) (A) (A)
                 (A) (A) (A) (A) (A) (A) (A) (A) (A) (A) (A) (A)
                 (A) (A) (A) (A)
       Virtual   (A) (A) (A) (A) (A) (A) (A) (A) (A) (A) (A) (A)
                 (A) (A) (A) (A) (A) (A) (A) (A) (A) (A) (A) (A)
 Harris functional with IExCor=  402 diagonalized for initial guess.
 ExpMin= 1.15D-01 ExpMax= 1.44D+04 ExpMxC= 1.44D+04 IAcc=1 IRadAn=         1 AccDes= 0.00D+00
 HarFok:  IExCor=  402 AccDes= 0.00D+00 IRadAn=         1 IDoV= 1
 ScaDFX=  1.000000  1.000000  1.000000  1.000000
 Defaulting to unpruned grid for atomic number  53.
 Defaulting to unpruned grid for atomic number  53.
 Defaulting to unpruned grid for atomic number  53.
 Defaulting to unpruned grid for atomic number  53.
 FoFCou: FMM=F IPFlag=           0 FMFlag=      100000 FMFlg1=           0
         NFxFlg=           0 DoJE=T BraDBF=F KetDBF=T FulRan=T
         Omega=  0.000000  0.000000  1.000000  0.000000  0.000000 ICntrl=     500 IOpCl=  0
         NMat0=    1 NMatS0=    1 NMatT0=    0 NMatD0=    1 NMtDS0=    0 NMtDT0=    0
         I1Cent=           4 NGrid=           0.
 Petite list used in FoFCou.
 Requested convergence on RMS density matrix=1.00D-08 within 128 cycles.
 Requested convergence on MAX density matrix=1.00D-06.
 Requested convergence on             energy=1.00D-06.
 No special actions if energy rises.
 Keep R1 ints in memory in canonical form, NReq=5269518.
 Integral accuracy reduced to 1.0D-05 until final iterations.
 Defaulting to unpruned grid for atomic number  53.
 Defaulting to unpruned grid for atomic number  53.
 Defaulting to unpruned grid for atomic number  53.
 Defaulting to unpruned grid for atomic number  53.
 Initial convergence to 1.0D-05 achieved.  Increase integral accuracy.
 SCF Done:  E(RB3LYP) =  -9590.12929429     A.U. after   14 cycles
             Convg  =    0.4707D-08             -V/T =  2.0019
 Calling FoFJK, ICntrl=      2127 FMM=F ISym2X=0 I1Cent= 0 IOpClX= 0 NMat=1 NMatS=1 NMatT=0.
 Defaulting to unpruned grid for atomic number  53.
 Defaulting to unpruned grid for atomic number  53.
 Defaulting to unpruned grid for atomic number  53.
 Defaulting to unpruned grid for atomic number  53.
 ***** Axes restored to original set *****
 -------------------------------------------------------------------
 Center     Atomic                   Forces (Hartrees/Bohr)
 Number     Number              X              Y              Z
 -------------------------------------------------------------------
      1        6           0.010183643    0.001529378   -0.003022885
      2        9          -0.002053450   -0.001908186    0.001774961
      3       35          -0.001164135   -0.000601545   -0.000560303
      4       53          -0.001818312    0.000478177   -0.000345469
      5        1          -0.005147747    0.000502176    0.002153697
 -------------------------------------------------------------------
 Cartesian Forces:  Max     0.010183643 RMS     0.003299160

 GradGradGradGradGradGradGradGradGradGradGradGradGradGradGradGradGradGrad
 Berny optimization.
 Using GEDIIS/GDIIS optimizer.
 Internal  Forces:  Max     0.005781816 RMS     0.002369204
 Search for a local minimum.
 Step number   2 out of a maximum of   24
 All quantities printed in internal units (Hartrees-Bohrs-Radians)
 Mixed Optimization -- RFO/linear search
 Update second derivatives using D2CorX and points    1    2
 DE= -9.66D-03 DEPred=-1.30D-02 R= 7.43D-01
 SS=  1.41D+00  RLast= 3.07D-01 DXNew= 5.0454D-01 9.2130D-01
 Trust test= 7.43D-01 RLast= 3.07D-01 DXMaxT set to 5.05D-01
 The second derivative matrix:
                          R1        R2        R3        R4        A1
           R1           0.53907
           R2           0.01222   0.17833
           R3           0.01465   0.02070   0.17213
           R4           0.00157   0.00107   0.00188   0.34495
           A1          -0.00352  -0.00339  -0.00501   0.00018   0.25021
           A2           0.00148   0.00213   0.00266   0.00021  -0.00053
           A3          -0.00263  -0.00208  -0.00338   0.00032  -0.00013
           A4          -0.00618  -0.00253  -0.00610   0.00170  -0.00177
           A5          -0.00428  -0.00502  -0.00679  -0.00014   0.00082
           A6           0.00107  -0.00129  -0.00030  -0.00098   0.00139
           D1           0.01608   0.01561   0.02296  -0.00079  -0.00104
           D2           0.00917   0.00889   0.01308  -0.00045  -0.00059
           D3          -0.00147  -0.00143  -0.00210   0.00007   0.00010
           D4          -0.01064  -0.01033  -0.01519   0.00052   0.00069
                          A2        A3        A4        A5        A6
           A2           0.25027
           A3          -0.00037   0.15964
           A4          -0.00071  -0.00224   0.23989
           A5          -0.00071   0.00038  -0.00032   0.16145
           A6           0.00001   0.00141   0.00526   0.00094   0.15767
           D1           0.00244   0.00049   0.00783  -0.00380  -0.00621
           D2           0.00139   0.00029   0.00449  -0.00216  -0.00355
           D3          -0.00022  -0.00004  -0.00070   0.00035   0.00056
           D4          -0.00162  -0.00033  -0.00519   0.00251   0.00412
                          D1        D2        D3        D4
           D1           0.00743
           D2           0.00289   0.00393
           D3          -0.00049  -0.00027   0.00235
           D4          -0.00338  -0.00191   0.00032   0.00453
 ITU=  1  0
 Use linear search instead of GDIIS.
     Eigenvalues ---    0.07198   0.07937   0.10580   0.15503   0.17585
     Eigenvalues ---    0.18349   0.20399   0.34498   0.54078
 RFO step:  Lambda=-6.27166042D-04 EMin= 7.19760632D-02
 Quartic linear search produced a step of  0.03807.
 Iteration  1 RMS(Cart)=  0.01826078 RMS(Int)=  0.00063601
 Iteration  2 RMS(Cart)=  0.00048197 RMS(Int)=  0.00035813
 Iteration  3 RMS(Cart)=  0.00000012 RMS(Int)=  0.00035813
 Variable       Old X    -DE/DX   Delta X   Delta X   Delta X     New X
                                 (Linear)    (Quad)   (Total)
    R1        2.61667  -0.00034   0.00185  -0.00119   0.00066   2.61733
    R2        3.81147  -0.00110   0.00520  -0.00789  -0.00269   3.80877
    R3        4.17223   0.00169   0.00900   0.01054   0.01954   4.19177
    R4        2.05761  -0.00145  -0.00027  -0.00428  -0.00455   2.05306
    A1        1.90732  -0.00081   0.00002   0.00186   0.00118   1.90849
    A2        1.92245  -0.00108   0.00057  -0.01095  -0.00985   1.91259
    A3        1.90488   0.00578   0.00059   0.04460   0.04497   1.94985
    A4        1.98232   0.00042   0.00280  -0.00839  -0.00569   1.97663
    A5        1.83258   0.00103  -0.00110   0.01264   0.01098   1.84356
    A6        1.91130  -0.00496  -0.00293  -0.03613  -0.03896   1.87235
    D1        2.14587  -0.00157   0.00225  -0.01192  -0.00984   2.13603
    D2       -2.04301  -0.00237   0.00026  -0.03014  -0.03044  -2.07344
    D3        2.10574  -0.00079  -0.00076  -0.00804  -0.00934   2.09639
    D4       -2.13444   0.00158  -0.00103   0.02210   0.02109  -2.11335
         Item               Value     Threshold  Converged?
 Maximum Force            0.005782     0.000450     NO 
 RMS     Force            0.002369     0.000300     NO 
 Maximum Displacement     0.044306     0.001800     NO 
 RMS     Displacement     0.018284     0.001200     NO 
 Predicted change in Energy=-3.216585D-04
 GradGradGradGradGradGradGradGradGradGradGradGradGradGradGradGradGradGrad

                          Input orientation:                          
 ---------------------------------------------------------------------
 Center     Atomic      Atomic             Coordinates (Angstroms)
 Number     Number       Type             X           Y           Z
 ---------------------------------------------------------------------
      1          6           0        0.779199    0.198646   -0.658483
      2          9           0        1.353228   -0.856707   -1.347710
      3         35           0        1.707459    0.420572    1.116732
      4         53           0       -1.405092   -0.137746   -0.468521
      5          1           0        0.916270    1.141627   -1.180338
 ---------------------------------------------------------------------
                    Distance matrix (angstroms):
                    1          2          3          4          5
     1  C    0.000000
     2  F    1.385032   0.000000
     3  Br   2.015516   2.798284   0.000000
     4  I    2.218191   2.982986   3.537332   0.000000
     5  H    1.086432   2.052385   2.534252   2.744485   0.000000
 Stoichiometry    CHBrFI
 Framework group  C1[X(CHBrFI)]
 Deg. of freedom     9
 Full point group                 C1      NOp   1
 Largest Abelian subgroup         C1      NOp   1
 Largest concise Abelian subgroup C1      NOp   1
                         Standard orientation:                         
 ---------------------------------------------------------------------
 Center     Atomic      Atomic             Coordinates (Angstroms)
 Number     Number       Type             X           Y           Z
 ---------------------------------------------------------------------
      1          6           0        0.450137    0.769326    0.442785
      2          9           0        0.543093    1.978196   -0.226771
      3         35           0        2.035377   -0.381001   -0.032680
      4         53           0       -1.496681   -0.188424   -0.018718
      5          1           0        0.497248    0.901775    1.520084
 ---------------------------------------------------------------------
 Rotational constants (GHZ):      4.8676385      0.8092520      0.7049844
 Standard basis: 3-21G (6D, 7F)
 There are    76 symmetry adapted basis functions of A   symmetry.
 Integral buffers will be    131072 words long.
 Raffenetti 2 integral format.
 Two-electron integral symmetry is turned on.
    76 basis functions,   177 primitive gaussians,    76 cartesian basis functions
    52 alpha electrons       52 beta electrons
       nuclear repulsion energy       596.0929240657 Hartrees.
 NAtoms=    5 NActive=    5 NUniq=    5 SFac= 1.00D+00 NAtFMM=   50 NAOKFM=F Big=F
 One-electron integrals computed using PRISM.
 NBasis=    76 RedAO= T  NBF=    76
 NBsUse=    76 1.00D-06 NBFU=    76
 Defaulting to unpruned grid for atomic number  53.
 Initial guess read from the read-write file.
 B after Tr=     0.000000    0.000000    0.000000
         Rot=    1.000000    0.000000    0.000000    0.000000 Ang=   0.00 deg.
 Initial guess orbital symmetries:
       Occupied  (A) (A) (A) (A) (A) (A) (A) (A) (A) (A) (A) (A)
                 (A) (A) (A) (A) (A) (A) (A) (A) (A) (A) (A) (A)
                 (A) (A) (A) (A) (A) (A) (A) (A) (A) (A) (A) (A)
                 (A) (A) (A) (A) (A) (A) (A) (A) (A) (A) (A) (A)
                 (A) (A) (A) (A)
       Virtual   (A) (A) (A) (A) (A) (A) (A) (A) (A) (A) (A) (A)
                 (A) (A) (A) (A) (A) (A) (A) (A) (A) (A) (A) (A)
 Harris functional with IExCor=  402 diagonalized for initial guess.
 ExpMin= 1.15D-01 ExpMax= 1.44D+04 ExpMxC= 1.44D+04 IAcc=1 IRadAn=         1 AccDes= 0.00D+00
 HarFok:  IExCor=  402 AccDes= 0.00D+00 IRadAn=         1 IDoV= 1
 ScaDFX=  1.000000  1.000000  1.000000  1.000000
 Defaulting to unpruned grid for atomic number  53.
 Defaulting to unpruned grid for atomic number  53.
 Defaulting to unpruned grid for atomic number  53.
 Defaulting to unpruned grid for atomic number  53.
 FoFCou: FMM=F IPFlag=           0 FMFlag=      100000 FMFlg1=           0
         NFxFlg=           0 DoJE=T BraDBF=F KetDBF=T FulRan=T
         Omega=  0.000000  0.000000  1.000000  0.000000  0.000000 ICntrl=     500 IOpCl=  0
         NMat0=    1 NMatS0=    1 NMatT0=    0 NMatD0=    1 NMtDS0=    0 NMtDT0=    0
         I1Cent=           4 NGrid=           0.
 Petite list used in FoFCou.
 Requested convergence on RMS density matrix=1.00D-08 within 128 cycles.
 Requested convergence on MAX density matrix=1.00D-06.
 Requested convergence on             energy=1.00D-06.
 No special actions if energy rises.
 Keep R1 ints in memory in canonical form, NReq=5269518.
 Integral accuracy reduced to 1.0D-05 until final iterations.
 Defaulting to unpruned grid for atomic number  53.
 Defaulting to unpruned grid for atomic number  53.
 Defaulting to unpruned grid for atomic number  53.
 Defaulting to unpruned grid for atomic number  53.
 Initial convergence to 1.0D-05 achieved.  Increase integral accuracy.
 SCF Done:  E(RB3LYP) =  -9590.12962022     A.U. after   11 cycles
             Convg  =    0.9601D-08             -V/T =  2.0019
 Calling FoFJK, ICntrl=      2127 FMM=F ISym2X=0 I1Cent= 0 IOpClX= 0 NMat=1 NMatS=1 NMatT=0.
 Defaulting to unpruned grid for atomic number  53.
 Defaulting to unpruned grid for atomic number  53.
 Defaulting to unpruned grid for atomic number  53.
 Defaulting to unpruned grid for atomic number  53.
 ***** Axes restored to original set *****
 -------------------------------------------------------------------
 Center     Atomic                   Forces (Hartrees/Bohr)
 Number     Number              X              Y              Z
 -------------------------------------------------------------------
      1        6           0.003968969   -0.002064715    0.000885615
      2        9          -0.001477411    0.002886381    0.001138374
      3       35          -0.000771359   -0.000261204   -0.001361850
      4       53          -0.001336402    0.000059691   -0.000057610
      5        1          -0.000383797   -0.000620154   -0.000604530
 -------------------------------------------------------------------
 Cartesian Forces:  Max     0.003968969 RMS     0.001587828

 GradGradGradGradGradGradGradGradGradGradGradGradGradGradGradGradGradGrad
 Berny optimization.
 Using GEDIIS/GDIIS optimizer.
 Internal  Forces:  Max     0.003380320 RMS     0.001133026
 Search for a local minimum.
 Step number   3 out of a maximum of   24
 All quantities printed in internal units (Hartrees-Bohrs-Radians)
 Mixed Optimization -- RFO/linear search
 Update second derivatives using D2CorX and points    1    2    3
 DE= -3.26D-04 DEPred=-3.22D-04 R= 1.01D+00
 SS=  1.41D+00  RLast= 7.59D-02 DXNew= 8.4853D-01 2.2763D-01
 Trust test= 1.01D+00 RLast= 7.59D-02 DXMaxT set to 5.05D-01
 The second derivative matrix:
                          R1        R2        R3        R4        A1
           R1           0.56436
           R2           0.02152   0.18187
           R3           0.02157   0.02417   0.15902
           R4          -0.00417  -0.00126   0.00662   0.34377
           A1          -0.01012  -0.00571  -0.00829   0.00232   0.25179
           A2          -0.00368  -0.00012   0.01179  -0.00276   0.00189
           A3           0.03064   0.01105  -0.02324   0.00406  -0.01177
           A4           0.00162   0.00002   0.00473  -0.00352  -0.00293
           A5          -0.00651  -0.00556  -0.01501   0.00339   0.00063
           A6          -0.02135  -0.01050   0.01958  -0.00621   0.00988
           D1           0.00400   0.01155   0.01538   0.00386   0.00170
           D2          -0.00432   0.00424   0.00645   0.00396   0.00266
           D3          -0.00420  -0.00242  -0.00280   0.00069   0.00082
           D4           0.00012  -0.00666  -0.00925  -0.00328  -0.00184
                          A2        A3        A4        A5        A6
           A2           0.24443
           A3           0.01164   0.15221
           A4          -0.00804   0.02368   0.23753
           A5           0.00478  -0.01628   0.00317   0.15799
           A6          -0.01260   0.01879  -0.01593   0.01543   0.13480
           D1           0.00812  -0.02426   0.00673  -0.00503   0.01234
           D2           0.00643  -0.02378   0.00219  -0.00260   0.01396
           D3           0.00033  -0.00364  -0.00155   0.00060   0.00297
           D4          -0.00609   0.02014  -0.00374   0.00319  -0.01099
                          D1        D2        D3        D4
           D1           0.01206
           D2           0.00858   0.01064
           D3           0.00085   0.00121   0.00264
           D4          -0.00774  -0.00713  -0.00086   0.00857
 ITU=  1  1  0
 Use linear search instead of GDIIS.
     Eigenvalues ---    0.06317   0.08394   0.10234   0.14672   0.17904
     Eigenvalues ---    0.19668   0.20281   0.34409   0.57044
 RFO step:  Lambda=-7.27219278D-05 EMin= 6.31745871D-02
 Quartic linear search produced a step of  0.03170.
 Iteration  1 RMS(Cart)=  0.00446066 RMS(Int)=  0.00002981
 Iteration  2 RMS(Cart)=  0.00002857 RMS(Int)=  0.00001697
 Iteration  3 RMS(Cart)=  0.00000000 RMS(Int)=  0.00001697
 Variable       Old X    -DE/DX   Delta X   Delta X   Delta X     New X
                                 (Linear)    (Quad)   (Total)
    R1        2.61733  -0.00338   0.00002  -0.00639  -0.00637   2.61096
    R2        3.80877  -0.00158  -0.00009  -0.00988  -0.00997   3.79881
    R3        4.19177   0.00130   0.00062   0.01140   0.01202   4.20379
    R4        2.05306  -0.00029  -0.00014  -0.00126  -0.00140   2.05166
    A1        1.90849   0.00012   0.00004   0.00339   0.00340   1.91190
    A2        1.91259   0.00038  -0.00031  -0.00012  -0.00045   1.91214
    A3        1.94985  -0.00083   0.00143  -0.00323  -0.00184   1.94801
    A4        1.97663   0.00006  -0.00018   0.00178   0.00162   1.97825
    A5        1.84356   0.00081   0.00035   0.00660   0.00693   1.85049
    A6        1.87235  -0.00057  -0.00123  -0.00855  -0.00979   1.86255
    D1        2.13603   0.00047  -0.00031   0.00552   0.00519   2.14122
    D2       -2.07344  -0.00018  -0.00096  -0.00635  -0.00734  -2.08078
    D3        2.09639  -0.00039  -0.00030  -0.00754  -0.00783   2.08856
    D4       -2.11335  -0.00020   0.00067  -0.00119  -0.00050  -2.11384
         Item               Value     Threshold  Converged?
 Maximum Force            0.003380     0.000450     NO 
 RMS     Force            0.001133     0.000300     NO 
 Maximum Displacement     0.008147     0.001800     NO 
 RMS     Displacement     0.004469     0.001200     NO 
 Predicted change in Energy=-3.652978D-05
 GradGradGradGradGradGradGradGradGradGradGradGradGradGradGradGradGradGrad

                          Input orientation:                          
 ---------------------------------------------------------------------
 Center     Atomic      Atomic             Coordinates (Angstroms)
 Number     Number       Type             X           Y           Z
 ---------------------------------------------------------------------
      1          6           0        0.783510    0.197652   -0.655668
      2          9           0        1.354470   -0.853758   -1.346708
      3         35           0        1.708425    0.419657    1.115296
      4         53           0       -1.408028   -0.135941   -0.469923
      5          1           0        0.912686    1.138783   -1.181318
 ---------------------------------------------------------------------
                    Distance matrix (angstroms):
                    1          2          3          4          5
     1  C    0.000000
     2  F    1.381663   0.000000
     3  Br   2.010241   2.794340   0.000000
     4  I    2.224550   2.985867   3.540323   0.000000
     5  H    1.085690   2.047619   2.534715   2.741663   0.000000
 Stoichiometry    CHBrFI
 Framework group  C1[X(CHBrFI)]
 Deg. of freedom     9
 Full point group                 C1      NOp   1
 Largest Abelian subgroup         C1      NOp   1
 Largest concise Abelian subgroup C1      NOp   1
                         Standard orientation:                         
 ---------------------------------------------------------------------
 Center     Atomic      Atomic             Coordinates (Angstroms)
 Number     Number       Type             X           Y           Z
 ---------------------------------------------------------------------
      1          6           0        0.456732    0.768672    0.439864
      2          9           0        0.548661    1.975903   -0.225818
      3         35           0        2.036141   -0.381717   -0.032515
      4         53           0       -1.498823   -0.187490   -0.018594
      5          1           0        0.494373    0.901909    1.516690
 ---------------------------------------------------------------------
 Rotational constants (GHZ):      4.8787179      0.8077130      0.7039480
 Standard basis: 3-21G (6D, 7F)
 There are    76 symmetry adapted basis functions of A   symmetry.
 Integral buffers will be    131072 words long.
 Raffenetti 2 integral format.
 Two-electron integral symmetry is turned on.
    76 basis functions,   177 primitive gaussians,    76 cartesian basis functions
    52 alpha electrons       52 beta electrons
       nuclear repulsion energy       595.8556383348 Hartrees.
 NAtoms=    5 NActive=    5 NUniq=    5 SFac= 1.00D+00 NAtFMM=   50 NAOKFM=F Big=F
 One-electron integrals computed using PRISM.
 NBasis=    76 RedAO= T  NBF=    76
 NBsUse=    76 1.00D-06 NBFU=    76
 Defaulting to unpruned grid for atomic number  53.
 Initial guess read from the read-write file.
 B after Tr=     0.000000    0.000000    0.000000
         Rot=    1.000000    0.000000    0.000000    0.000000 Ang=   0.00 deg.
 Initial guess orbital symmetries:
       Occupied  (A) (A) (A) (A) (A) (A) (A) (A) (A) (A) (A) (A)
                 (A) (A) (A) (A) (A) (A) (A) (A) (A) (A) (A) (A)
                 (A) (A) (A) (A) (A) (A) (A) (A) (A) (A) (A) (A)
                 (A) (A) (A) (A) (A) (A) (A) (A) (A) (A) (A) (A)
                 (A) (A) (A) (A)
       Virtual   (A) (A) (A) (A) (A) (A) (A) (A) (A) (A) (A) (A)
                 (A) (A) (A) (A) (A) (A) (A) (A) (A) (A) (A) (A)
 Requested convergence on RMS density matrix=1.00D-08 within 128 cycles.
 Requested convergence on MAX density matrix=1.00D-06.
 Requested convergence on             energy=1.00D-06.
 No special actions if energy rises.
 Keep R1 ints in memory in canonical form, NReq=5269518.
 Defaulting to unpruned grid for atomic number  53.
 Defaulting to unpruned grid for atomic number  53.
 Defaulting to unpruned grid for atomic number  53.
 Defaulting to unpruned grid for atomic number  53.
 SCF Done:  E(RB3LYP) =  -9590.12966829     A.U. after    9 cycles
             Convg  =    0.2920D-08             -V/T =  2.0019
 Calling FoFJK, ICntrl=      2127 FMM=F ISym2X=0 I1Cent= 0 IOpClX= 0 NMat=1 NMatS=1 NMatT=0.
 Defaulting to unpruned grid for atomic number  53.
 Defaulting to unpruned grid for atomic number  53.
 Defaulting to unpruned grid for atomic number  53.
 Defaulting to unpruned grid for atomic number  53.
 ***** Axes restored to original set *****
 -------------------------------------------------------------------
 Center     Atomic                   Forces (Hartrees/Bohr)
 Number     Number              X              Y              Z
 -------------------------------------------------------------------
      1        6           0.001431369   -0.000927358    0.000505022
      2        9          -0.000540919    0.000953460    0.000330805
      3       35          -0.000390081   -0.000115817   -0.000574157
      4       53          -0.000537070    0.000005863    0.000097250
      5        1           0.000036702    0.000083852   -0.000358919
 -------------------------------------------------------------------
 Cartesian Forces:  Max     0.001431369 RMS     0.000600297

 GradGradGradGradGradGradGradGradGradGradGradGradGradGradGradGradGradGrad
 Berny optimization.
 Using GEDIIS/GDIIS optimizer.
 Internal  Forces:  Max     0.001116690 RMS     0.000409367
 Search for a local minimum.
 Step number   4 out of a maximum of   24
 All quantities printed in internal units (Hartrees-Bohrs-Radians)
 Mixed Optimization -- En-DIIS/RFO-DIIS
 Update second derivatives using D2CorX and points    1    2    3    4
 DE= -4.81D-05 DEPred=-3.65D-05 R= 1.32D+00
 SS=  1.41D+00  RLast= 2.43D-02 DXNew= 8.4853D-01 7.2891D-02
 Trust test= 1.32D+00 RLast= 2.43D-02 DXMaxT set to 5.05D-01
 The second derivative matrix:
                          R1        R2        R3        R4        A1
           R1           0.51053
           R2          -0.01117   0.16385
           R3           0.04298   0.03766   0.14737
           R4           0.00523   0.00122   0.00315   0.35000
           A1           0.02393   0.01087  -0.02115   0.00724   0.24544
           A2          -0.01222  -0.00523   0.00886  -0.00494   0.00118
           A3           0.00810   0.00180  -0.00723   0.00066  -0.00652
           A4           0.00738  -0.00117  -0.01587  -0.00318  -0.00772
           A5           0.01095   0.00566  -0.01876   0.00084  -0.00914
           A6          -0.03236  -0.01915   0.02409  -0.00037   0.02198
           D1          -0.00537   0.01174   0.03236  -0.00005   0.00253
           D2           0.00252   0.01063   0.01663   0.00568   0.00478
           D3           0.00784   0.00282  -0.00580   0.00474   0.00201
           D4           0.00533  -0.00781  -0.02243  -0.00094  -0.00277
                          A2        A3        A4        A5        A6
           A2           0.24352
           A3           0.01387   0.14582
           A4          -0.01210   0.03263   0.22260
           A5           0.00762  -0.01029   0.00263   0.15238
           A6          -0.01452   0.00871  -0.00937   0.01835   0.13478
           D1           0.01003  -0.02615   0.01049  -0.00196   0.00389
           D2           0.00693  -0.02661   0.00551  -0.00427   0.01320
           D3          -0.00064  -0.00457  -0.00165  -0.00282   0.00802
           D4          -0.00758   0.02203  -0.00716   0.00145  -0.00518
                          D1        D2        D3        D4
           D1           0.01726
           D2           0.01047   0.01343
           D3          -0.00082   0.00250   0.00486
           D4          -0.01128  -0.00863   0.00006   0.01099
 ITU=  1  1  1  0
 Use linear search instead of GDIIS.
     Eigenvalues ---    0.05417   0.08452   0.09752   0.13527   0.18342
     Eigenvalues ---    0.18853   0.20465   0.34998   0.51744
 RFO step:  Lambda=-2.93378853D-06 EMin= 5.41690445D-02
 Quartic linear search produced a step of  0.59050.
 Iteration  1 RMS(Cart)=  0.00244947 RMS(Int)=  0.00001596
 Iteration  2 RMS(Cart)=  0.00000961 RMS(Int)=  0.00001410
 Iteration  3 RMS(Cart)=  0.00000000 RMS(Int)=  0.00001410
 Variable       Old X    -DE/DX   Delta X   Delta X   Delta X     New X
                                 (Linear)    (Quad)   (Total)
    R1        2.61096  -0.00112  -0.00376   0.00018  -0.00358   2.60738
    R2        3.79881  -0.00070  -0.00589  -0.00169  -0.00757   3.79123
    R3        4.20379   0.00054   0.00710   0.00167   0.00877   4.21256
    R4        2.05166   0.00025  -0.00083   0.00158   0.00075   2.05241
    A1        1.91190   0.00012   0.00201   0.00099   0.00300   1.91489
    A2        1.91214   0.00008  -0.00027  -0.00037  -0.00066   1.91148
    A3        1.94801  -0.00035  -0.00109  -0.00006  -0.00117   1.94684
    A4        1.97825  -0.00014   0.00096  -0.00169  -0.00072   1.97754
    A5        1.85049   0.00025   0.00409  -0.00004   0.00404   1.85453
    A6        1.86255   0.00002  -0.00578   0.00117  -0.00463   1.85792
    D1        2.14122   0.00012   0.00307  -0.00017   0.00289   2.14411
    D2       -2.08078  -0.00011  -0.00433  -0.00114  -0.00547  -2.08625
    D3        2.08856  -0.00009  -0.00462   0.00025  -0.00435   2.08421
    D4       -2.11384   0.00002  -0.00029   0.00139   0.00112  -2.11273
         Item               Value     Threshold  Converged?
 Maximum Force            0.001117     0.000450     NO 
 RMS     Force            0.000409     0.000300     NO 
 Maximum Displacement     0.005831     0.001800     NO 
 RMS     Displacement     0.002449     0.001200     NO 
 Predicted change in Energy=-7.240153D-06
 GradGradGradGradGradGradGradGradGradGradGradGradGradGradGradGradGradGrad

                          Input orientation:                          
 ---------------------------------------------------------------------
 Center     Atomic      Atomic             Coordinates (Angstroms)
 Number     Number       Type             X           Y           Z
 ---------------------------------------------------------------------
      1          6           0        0.786596    0.197148   -0.654263
      2          9           0        1.355087   -0.852261   -1.346590
      3         35           0        1.707391    0.419037    1.114318
      4         53           0       -1.409883   -0.135400   -0.469377
      5          1           0        0.911874    1.137869   -1.182410
 ---------------------------------------------------------------------
                    Distance matrix (angstroms):
                    1          2          3          4          5
     1  C    0.000000
     2  F    1.379767   0.000000
     3  Br   2.006234   2.792200   0.000000
     4  I    2.229190   2.988051   3.540181   0.000000
     5  H    1.086089   2.045485   2.534664   2.742294   0.000000
 Stoichiometry    CHBrFI
 Framework group  C1[X(CHBrFI)]
 Deg. of freedom     9
 Full point group                 C1      NOp   1
 Largest Abelian subgroup         C1      NOp   1
 Largest concise Abelian subgroup C1      NOp   1
                         Standard orientation:                         
 ---------------------------------------------------------------------
 Center     Atomic      Atomic             Coordinates (Angstroms)
 Number     Number       Type             X           Y           Z
 ---------------------------------------------------------------------
      1          6           0        0.461674    0.769343    0.438458
      2          9           0        0.552366    1.975374   -0.225637
      3         35           0        2.035287   -0.382594   -0.032455
      4         53           0       -1.499456   -0.186931   -0.018487
      5          1           0        0.494777    0.903713    1.515695
 ---------------------------------------------------------------------
 Rotational constants (GHZ):      4.8795601      0.8076142      0.7038508
 Standard basis: 3-21G (6D, 7F)
 There are    76 symmetry adapted basis functions of A   symmetry.
 Integral buffers will be    131072 words long.
 Raffenetti 2 integral format.
 Two-electron integral symmetry is turned on.
    76 basis functions,   177 primitive gaussians,    76 cartesian basis functions
    52 alpha electrons       52 beta electrons
       nuclear repulsion energy       595.8312069302 Hartrees.
 NAtoms=    5 NActive=    5 NUniq=    5 SFac= 1.00D+00 NAtFMM=   50 NAOKFM=F Big=F
 One-electron integrals computed using PRISM.
 NBasis=    76 RedAO= T  NBF=    76
 NBsUse=    76 1.00D-06 NBFU=    76
 Defaulting to unpruned grid for atomic number  53.
 Initial guess read from the read-write file.
 B after Tr=     0.000000    0.000000    0.000000
         Rot=    1.000000    0.000000    0.000000    0.000000 Ang=   0.00 deg.
 Initial guess orbital symmetries:
       Occupied  (A) (A) (A) (A) (A) (A) (A) (A) (A) (A) (A) (A)
                 (A) (A) (A) (A) (A) (A) (A) (A) (A) (A) (A) (A)
                 (A) (A) (A) (A) (A) (A) (A) (A) (A) (A) (A) (A)
                 (A) (A) (A) (A) (A) (A) (A) (A) (A) (A) (A) (A)
                 (A) (A) (A) (A)
       Virtual   (A) (A) (A) (A) (A) (A) (A) (A) (A) (A) (A) (A)
                 (A) (A) (A) (A) (A) (A) (A) (A) (A) (A) (A) (A)
 Requested convergence on RMS density matrix=1.00D-08 within 128 cycles.
 Requested convergence on MAX density matrix=1.00D-06.
 Requested convergence on             energy=1.00D-06.
 No special actions if energy rises.
 Keep R1 ints in memory in canonical form, NReq=5269518.
 Defaulting to unpruned grid for atomic number  53.
 Defaulting to unpruned grid for atomic number  53.
 Defaulting to unpruned grid for atomic number  53.
 Defaulting to unpruned grid for atomic number  53.
 SCF Done:  E(RB3LYP) =  -9590.12967522     A.U. after    8 cycles
             Convg  =    0.9490D-08             -V/T =  2.0019
 Calling FoFJK, ICntrl=      2127 FMM=F ISym2X=0 I1Cent= 0 IOpClX= 0 NMat=1 NMatS=1 NMatT=0.
 Defaulting to unpruned grid for atomic number  53.
 Defaulting to unpruned grid for atomic number  53.
 Defaulting to unpruned grid for atomic number  53.
 Defaulting to unpruned grid for atomic number  53.
 ***** Axes restored to original set *****
 -------------------------------------------------------------------
 Center     Atomic                   Forces (Hartrees/Bohr)
 Number     Number              X              Y              Z
 -------------------------------------------------------------------
      1        6          -0.000226859    0.000111350   -0.000070690
      2        9           0.000019696   -0.000117103   -0.000088832
      3       35           0.000046532   -0.000029001    0.000073384
      4       53           0.000049441    0.000033248    0.000076680
      5        1           0.000111191    0.000001506    0.000009459
 -------------------------------------------------------------------
 Cartesian Forces:  Max     0.000226859 RMS     0.000089862

 GradGradGradGradGradGradGradGradGradGradGradGradGradGradGradGradGradGrad
 Berny optimization.
 Using GEDIIS/GDIIS optimizer.
 Internal  Forces:  Max     0.000149449 RMS     0.000068564
 Search for a local minimum.
 Step number   5 out of a maximum of   24
 All quantities printed in internal units (Hartrees-Bohrs-Radians)
 Mixed Optimization -- En-DIIS/RFO-DIIS
 Swaping is turned off.
 Update second derivatives using D2CorX and points    1    2    3    4    5
 DE= -6.93D-06 DEPred=-7.24D-06 R= 9.57D-01
 SS=  1.41D+00  RLast= 1.60D-02 DXNew= 8.4853D-01 4.7922D-02
 Trust test= 9.57D-01 RLast= 1.60D-02 DXMaxT set to 5.05D-01
 The second derivative matrix:
                          R1        R2        R3        R4        A1
           R1           0.52416
           R2          -0.00725   0.16402
           R3           0.04256   0.03823   0.14687
           R4           0.00860   0.00374   0.00559   0.34855
           A1           0.03889   0.02077  -0.01997   0.00480   0.24167
           A2          -0.01755  -0.00820   0.00777  -0.00491   0.00072
           A3           0.00641  -0.00146  -0.01054   0.00491   0.00052
           A4          -0.00482  -0.00857  -0.00529  -0.00168  -0.00471
           A5           0.01050   0.00631  -0.01934   0.00032  -0.01239
           A6          -0.02897  -0.01673   0.02412  -0.00356   0.01914
           D1          -0.00862   0.01037   0.02803   0.00028   0.00229
           D2           0.00853   0.01478   0.01667   0.00457   0.00440
           D3           0.01009   0.00437  -0.00044   0.00399   0.00205
           D4           0.00156  -0.01041  -0.01711  -0.00059  -0.00234
                          A2        A3        A4        A5        A6
           A2           0.24398
           A3           0.01230   0.13927
           A4          -0.01202   0.03184   0.22254
           A5           0.00860  -0.00993   0.00637   0.15177
           A6          -0.01398   0.01342  -0.01484   0.01811   0.13336
           D1           0.01051  -0.02996   0.01124  -0.00193   0.00724
           D2           0.00674  -0.02512   0.00428  -0.00546   0.01334
           D3          -0.00074  -0.00151  -0.00282  -0.00264   0.00470
           D4          -0.00748   0.02361  -0.00710   0.00282  -0.00864
                          D1        D2        D3        D4
           D1           0.01747
           D2           0.01146   0.01463
           D3           0.00027   0.00224   0.00348
           D4          -0.01119  -0.01009  -0.00106   0.01133
 ITU=  1  1  1  1  0
     Eigenvalues ---    0.05106   0.08481   0.09859   0.13861   0.17610
     Eigenvalues ---    0.18506   0.20670   0.34841   0.53015
 En-DIIS/RFO-DIIS IScMMF=        0 using points:     5    4
 RFO step:  Lambda=-1.71342905D-07.
 DidBck=F Rises=F RFO-DIIS coefs:    0.87787    0.12213
 Iteration  1 RMS(Cart)=  0.00060883 RMS(Int)=  0.00000059
 Iteration  2 RMS(Cart)=  0.00000038 RMS(Int)=  0.00000046
 Variable       Old X    -DE/DX   Delta X   Delta X   Delta X     New X
                                  (DIIS)     (GDIIS)  (Total)
    R1        2.60738   0.00014   0.00044   0.00000   0.00044   2.60782
    R2        3.79123   0.00008   0.00092  -0.00002   0.00091   3.79214
    R3        4.21256  -0.00005  -0.00107   0.00001  -0.00106   4.21150
    R4        2.05241   0.00001  -0.00009   0.00012   0.00003   2.05244
    A1        1.91489   0.00003  -0.00037   0.00010  -0.00027   1.91463
    A2        1.91148  -0.00003   0.00008  -0.00001   0.00008   1.91155
    A3        1.94684  -0.00004   0.00014  -0.00042  -0.00028   1.94656
    A4        1.97754  -0.00008   0.00009  -0.00053  -0.00044   1.97709
    A5        1.85453  -0.00003  -0.00049  -0.00005  -0.00054   1.85399
    A6        1.85792   0.00015   0.00057   0.00090   0.00147   1.85939
    D1        2.14411  -0.00004  -0.00035  -0.00025  -0.00060   2.14351
    D2       -2.08625   0.00000   0.00067   0.00014   0.00081  -2.08544
    D3        2.08421   0.00003   0.00053   0.00032   0.00085   2.08506
    D4       -2.11273   0.00003  -0.00014   0.00017   0.00004  -2.11269
         Item               Value     Threshold  Converged?
 Maximum Force            0.000149     0.000450     YES
 RMS     Force            0.000069     0.000300     YES
 Maximum Displacement     0.001341     0.001800     YES
 RMS     Displacement     0.000609     0.001200     YES
 Predicted change in Energy=-2.591334D-07
 Optimization completed.
    -- Stationary point found.
                           ----------------------------
                           !   Optimized Parameters   !
                           ! (Angstroms and Degrees)  !
 --------------------------                            --------------------------
 ! Name  Definition              Value          Derivative Info.                !
 --------------------------------------------------------------------------------
 ! R1    R(1,2)                  1.3798         -DE/DX =    0.0001              !
 ! R2    R(1,3)                  2.0062         -DE/DX =    0.0001              !
 ! R3    R(1,4)                  2.2292         -DE/DX =    0.0                 !
 ! R4    R(1,5)                  1.0861         -DE/DX =    0.0                 !
 ! A1    A(2,1,3)              109.7154         -DE/DX =    0.0                 !
 ! A2    A(2,1,4)              109.5196         -DE/DX =    0.0                 !
 ! A3    A(2,1,5)              111.5457         -DE/DX =    0.0                 !
 ! A4    A(3,1,4)              113.3045         -DE/DX =   -0.0001              !
 ! A5    A(3,1,5)              106.2567         -DE/DX =    0.0                 !
 ! A6    A(4,1,5)              106.4512         -DE/DX =    0.0001              !
 ! D1    D(2,1,4,3)            122.8485         -DE/DX =    0.0                 !
 ! D2    D(2,1,5,3)           -119.5333         -DE/DX =    0.0                 !
 ! D3    D(2,1,5,4)            119.4164         -DE/DX =    0.0                 !
 ! D4    D(3,1,5,4)           -121.0503         -DE/DX =    0.0                 !
 --------------------------------------------------------------------------------
 GradGradGradGradGradGradGradGradGradGradGradGradGradGradGradGradGradGrad

                          Input orientation:                          
 ---------------------------------------------------------------------
 Center     Atomic      Atomic             Coordinates (Angstroms)
 Number     Number       Type             X           Y           Z
 ---------------------------------------------------------------------
      1          6           0        0.786596    0.197148   -0.654263
      2          9           0        1.355087   -0.852261   -1.346590
      3         35           0        1.707391    0.419037    1.114318
      4         53           0       -1.409883   -0.135400   -0.469377
      5          1           0        0.911874    1.137869   -1.182410
 ---------------------------------------------------------------------
                    Distance matrix (angstroms):
                    1          2          3          4          5
     1  C    0.000000
     2  F    1.379767   0.000000
     3  Br   2.006234   2.792200   0.000000
     4  I    2.229190   2.988051   3.540181   0.000000
     5  H    1.086089   2.045485   2.534664   2.742294   0.000000
 Stoichiometry    CHBrFI
 Framework group  C1[X(CHBrFI)]
 Deg. of freedom     9
 Full point group                 C1      NOp   1
 Largest Abelian subgroup         C1      NOp   1
 Largest concise Abelian subgroup C1      NOp   1
                         Standard orientation:                         
 ---------------------------------------------------------------------
 Center     Atomic      Atomic             Coordinates (Angstroms)
 Number     Number       Type             X           Y           Z
 ---------------------------------------------------------------------
      1          6           0        0.461674    0.769343    0.438458
      2          9           0        0.552366    1.975374   -0.225637
      3         35           0        2.035287   -0.382594   -0.032455
      4         53           0       -1.499456   -0.186931   -0.018487
      5          1           0        0.494777    0.903713    1.515695
 ---------------------------------------------------------------------
 Rotational constants (GHZ):      4.8795601      0.8076142      0.7038508

 **********************************************************************

            Population analysis using the SCF density.

 **********************************************************************

 Orbital symmetries:
       Occupied  (A) (A) (A) (A) (A) (A) (A) (A) (A) (A) (A) (A)
                 (A) (A) (A) (A) (A) (A) (A) (A) (A) (A) (A) (A)
                 (A) (A) (A) (A) (A) (A) (A) (A) (A) (A) (A) (A)
                 (A) (A) (A) (A) (A) (A) (A) (A) (A) (A) (A) (A)
                 (A) (A) (A) (A)
       Virtual   (A) (A) (A) (A) (A) (A) (A) (A) (A) (A) (A) (A)
                 (A) (A) (A) (A) (A) (A) (A) (A) (A) (A) (A) (A)
 The electronic state is 1-A.
 Alpha  occ. eigenvalues -- **********-479.55789-175.58095-164.34406-164.34159
 Alpha  occ. eigenvalues -- -164.34158 -62.11256 -55.71692 -55.71225 -55.71217
 Alpha  occ. eigenvalues --  -35.74550 -30.90926 -30.90268 -30.90263 -24.59426
 Alpha  occ. eigenvalues --  -22.83440 -22.83231 -22.83228 -22.82760 -22.82760
 Alpha  occ. eigenvalues --  -10.31281  -8.62839  -6.42371  -6.40713  -6.40684
 Alpha  occ. eigenvalues --   -6.37759  -4.68764  -4.67072  -4.67060  -2.51702
 Alpha  occ. eigenvalues --   -2.51071  -2.51051  -2.49732  -2.49732  -2.06538
 Alpha  occ. eigenvalues --   -2.06013  -2.06005  -2.04566  -2.04566  -1.23419
 Alpha  occ. eigenvalues --   -0.81901  -0.71276  -0.63394  -0.53778  -0.48625
 Alpha  occ. eigenvalues --   -0.47457  -0.37078  -0.34870  -0.30356  -0.29181
 Alpha  occ. eigenvalues --   -0.27409  -0.26770
 Alpha virt. eigenvalues --   -0.08466  -0.01728   0.10316   0.12133   0.34051
 Alpha virt. eigenvalues --    0.38322   0.40170   0.40434   0.57522   0.61349
 Alpha virt. eigenvalues --    0.61905   0.67688   0.70594   0.75386   0.82186
 Alpha virt. eigenvalues --    0.96896   1.45843   1.89085   1.90678   2.00865
 Alpha virt. eigenvalues --    3.44199   4.10886  23.49641 225.77605
          Condensed to atoms (all electrons):
              1          2          3          4          5
     1  C    5.478733   0.194474   0.170242   0.198068   0.292177
     2  F    0.194474   9.121888  -0.028543  -0.023183  -0.028212
     3  Br   0.170242  -0.028543  34.843246  -0.046453  -0.045637
     4  I    0.198068  -0.023183  -0.046453  52.739039  -0.042885
     5  H    0.292177  -0.028212  -0.045637  -0.042885   0.536997
 Mulliken atomic charges:
              1
     1  C   -0.333694
     2  F   -0.236425
     3  Br   0.107145
     4  I    0.175414
     5  H    0.287560
 Sum of Mulliken atomic charges =   0.00000
 Mulliken charges with hydrogens summed into heavy atoms:
              1
     1  C   -0.046134
     2  F   -0.236425
     3  Br   0.107145
     4  I    0.175414
 Sum of Mulliken charges with hydrogens summed into heavy atoms =   0.00000
 Electronic spatial extent (au):  <R**2>=           1266.2115
 Charge=              0.0000 electrons
 Dipole moment (field-independent basis, Debye):
    X=             -0.1058    Y=             -0.1369    Z=              1.3807  Tot=              1.3915
 Quadrupole moment (field-independent basis, Debye-Ang):
   XX=            -56.7085   YY=            -58.7735   ZZ=            -56.1477
   XY=              0.2764   XZ=              0.8949   YZ=              1.8462
 Traceless Quadrupole moment (field-independent basis, Debye-Ang):
   XX=              0.5014   YY=             -1.5636   ZZ=              1.0622
   XY=              0.2764   XZ=              0.8949   YZ=              1.8462
 Octapole moment (field-independent basis, Debye-Ang**2):
  XXX=             -3.9303  YYY=             -9.6489  ZZZ=             -0.5975  XYY=              0.3353
  XXY=             -9.0011  XXZ=             -4.0701  XZZ=              1.7896  YZZ=              0.3002
  YYZ=              0.1499  XYZ=              0.8485
 Hexadecapole moment (field-independent basis, Debye-Ang**3):
 XXXX=           -864.4077 YYYY=           -223.2067 ZZZZ=            -78.1992 XXXY=             -4.3407
 XXXZ=             -1.8292 YYYX=             -6.5989 YYYZ=             -0.4252 ZZZX=             -0.1086
 ZZZY=             -0.3365 XXYY=           -180.6717 XXZZ=           -167.3382 YYZZ=            -48.1133
 XXYZ=              2.4762 YYXZ=             -0.0361 ZZXY=             -0.1162
 N-N= 5.958312069302D+02 E-N=-2.400015670113D+04  KE= 9.571762897601D+03

 Test job not archived.
 1\1\GINC-TERMINUS\FOpt\RB3LYP\3-21G\C1H1Br1F1I1\FRODOX\05-Jan-2018\0\\
 #B3LYP/3-21G fopt test\\SymmetricEnantiomers/s-tmp_rotated.xyz\\0,1\C,
 0.7865958434,0.1971476649,-0.6542627865\F,1.3550867564,-0.8522608463,-
 1.3465895475\Br,1.707390662,0.4190372115,1.1143178554\I,-1.4098827638,
 -0.1353995428,-0.4693769856\H,0.9118735019,1.1378685127,-1.1824095359\
 \Version=EM64L-G09RevB.01\State=1-A\HF=-9590.1296752\RMSD=9.490e-09\RM
 SF=8.986e-05\Dipole=-0.0410822,0.5119995,-0.1894674\Quadrupole=0.34056
 84,-0.2923613,-0.0482071,1.2685169,-0.0930354,-1.3062996\PG=C01 [X(C1H
 1Br1F1I1)]\\@


 THE ... SCIENTISTS WERE WRONG ... THE MOST PERSISTENT PRINCIPLES 
 OF THE UNIVERSE WERE ACCIDENT AND ERROR.

                          -- FRANK HERBERT IN DUNE
 Job cpu time:  0 days  0 hours  0 minutes 29.7 seconds.
 File lengths (MBytes):  RWF=      9 Int=      0 D2E=      0 Chk=      1 Scr=      1
 Normal termination of Gaussian 09 at Fri Jan  5 13:35:28 2018.
