 Entering Gaussian System, Link 0=g09
 Input=test-S.inp
 Output=test-S.log
 Initial command:
 /usr/local/g09/l1.exe /home/g09scr/Gau-7584.inp -scrdir=/home/g09scr/
 Entering Link 1 = /usr/local/g09/l1.exe PID=      7586.
  
 Copyright (c) 1988,1990,1992,1993,1995,1998,2003,2009,2010,
            Gaussian, Inc.  All Rights Reserved.
  
 This is part of the Gaussian(R) 09 program.  It is based on
 the Gaussian(R) 03 system (copyright 2003, Gaussian, Inc.),
 the Gaussian(R) 98 system (copyright 1998, Gaussian, Inc.),
 the Gaussian(R) 94 system (copyright 1995, Gaussian, Inc.),
 the Gaussian 92(TM) system (copyright 1992, Gaussian, Inc.),
 the Gaussian 90(TM) system (copyright 1990, Gaussian, Inc.),
 the Gaussian 88(TM) system (copyright 1988, Gaussian, Inc.),
 the Gaussian 86(TM) system (copyright 1986, Carnegie Mellon
 University), and the Gaussian 82(TM) system (copyright 1983,
 Carnegie Mellon University). Gaussian is a federally registered
 trademark of Gaussian, Inc.
  
 This software contains proprietary and confidential information,
 including trade secrets, belonging to Gaussian, Inc.
  
 This software is provided under written license and may be
 used, copied, transmitted, or stored only in accord with that
 written license.
  
 The following legend is applicable only to US Government
 contracts under FAR:
  
                    RESTRICTED RIGHTS LEGEND
  
 Use, reproduction and disclosure by the US Government is
 subject to restrictions as set forth in subparagraphs (a)
 and (c) of the Commercial Computer Software - Restricted
 Rights clause in FAR 52.227-19.
  
 Gaussian, Inc.
 340 Quinnipiac St., Bldg. 40, Wallingford CT 06492
  
  
 ---------------------------------------------------------------
 Warning -- This program may not be used in any manner that
 competes with the business of Gaussian, Inc. or will provide
 assistance to any competitor of Gaussian, Inc.  The licensee
 of this program is prohibited from giving any competitor of
 Gaussian, Inc. access to this program.  By using this program,
 the user acknowledges that Gaussian, Inc. is engaged in the
 business of creating and licensing software in the field of
 computational chemistry and represents and warrants to the
 licensee that it is not a competitor of Gaussian, Inc. and that
 it will not use this program in any manner prohibited above.
 ---------------------------------------------------------------
  

 Cite this work as:
 Gaussian 09, Revision B.01,
 M. J. Frisch, G. W. Trucks, H. B. Schlegel, G. E. Scuseria, 
 M. A. Robb, J. R. Cheeseman, G. Scalmani, V. Barone, B. Mennucci, 
 G. A. Petersson, H. Nakatsuji, M. Caricato, X. Li, H. P. Hratchian, 
 A. F. Izmaylov, J. Bloino, G. Zheng, J. L. Sonnenberg, M. Hada, 
 M. Ehara, K. Toyota, R. Fukuda, J. Hasegawa, M. Ishida, T. Nakajima, 
 Y. Honda, O. Kitao, H. Nakai, T. Vreven, J. A. Montgomery, Jr., 
 J. E. Peralta, F. Ogliaro, M. Bearpark, J. J. Heyd, E. Brothers, 
 K. N. Kudin, V. N. Staroverov, T. Keith, R. Kobayashi, J. Normand, 
 K. Raghavachari, A. Rendell, J. C. Burant, S. S. Iyengar, J. Tomasi, 
 M. Cossi, N. Rega, J. M. Millam, M. Klene, J. E. Knox, J. B. Cross, 
 V. Bakken, C. Adamo, J. Jaramillo, R. Gomperts, R. E. Stratmann, 
 O. Yazyev, A. J. Austin, R. Cammi, C. Pomelli, J. W. Ochterski, 
 R. L. Martin, K. Morokuma, V. G. Zakrzewski, G. A. Voth, 
 P. Salvador, J. J. Dannenberg, S. Dapprich, A. D. Daniels, 
 O. Farkas, J. B. Foresman, J. V. Ortiz, J. Cioslowski, 
 and D. J. Fox, Gaussian, Inc., Wallingford CT, 2010.
 
 ******************************************
 Gaussian 09:  EM64L-G09RevB.01 12-Aug-2010
                12-Jul-2018 
 ******************************************
 %nproc=4
 Will use up to    4 processors via shared memory.
 %mem=60gb
 ------------------------------
 #B3LYP/6-311G** fopt test freq
 ------------------------------
 1/14=-1,18=20,19=15,26=3,38=1/1,3;
 2/9=110,12=2,14=103,17=6,18=5,40=1/2;
 3/5=4,6=6,7=101,11=2,16=1,25=1,30=1,71=1,74=-5/1,2,3;
 4//1;
 5/5=2,38=5/2;
 6/7=2,8=2,9=2,10=2,28=1/1;
 7//1,2,3,16;
 1/14=-1,18=20,19=15/3(2);
 2/9=110/2;
 99//99;
 2/9=110/2;
 3/5=4,6=6,7=101,11=2,16=1,25=1,30=1,71=1,74=-5/1,2,3;
 4/5=5,16=3/1;
 5/5=2,38=5/2;
 7//1,2,3,16;
 1/14=-1,18=20,19=15/3(-5);
 2/9=110/2;
 6/7=2,8=2,9=2,10=2,19=2,28=1/1;
 99/9=1/99;
 ----------------
 TestTesis/test-S
 ----------------
 Symbolic Z-matrix:
 Charge =  0 Multiplicity = 1
 C                     0.        0.        0. 
 H                     0.        0.        1.089 
 O                     1.31993   0.       -0.46666 
 H                     1.76777   0.77567  -0.14999 
 C                    -0.68354   1.18392  -0.48333 
 H                    -0.68354   1.18392  -1.57233 
 H                    -1.71026   1.18392  -0.12033 
 H                    -0.17018   2.07308  -0.12033 
 C                    -0.68354  -1.18392  -0.48333 
 C                    -0.81145  -1.40547  -1.85976 
 C                    -1.47141  -2.54856  -2.32643 
 C                    -2.00347  -3.47011  -1.41667 
 C                    -1.87556  -3.24856  -0.04024 
 C                    -1.21559  -2.10547   0.42643 
 H                    -0.39758  -0.68864  -2.56743 
 H                    -1.57091  -2.7209   -3.39709 
 H                    -2.51683  -4.35928  -1.77967 
 H                    -2.28942  -3.9654    0.66743 
 H                    -1.1161   -1.93314   1.49709 
 

 GradGradGradGradGradGradGradGradGradGradGradGradGradGradGradGradGradGrad
 Berny optimization.
 Initialization pass.
                           ----------------------------
                           !    Initial Parameters    !
                           ! (Angstroms and Degrees)  !
 --------------------------                            --------------------------
 ! Name  Definition              Value          Derivative Info.                !
 --------------------------------------------------------------------------------
 ! R1    R(1,2)                  1.089          estimate D2E/DX2                !
 ! R2    R(1,3)                  1.4            estimate D2E/DX2                !
 ! R3    R(1,5)                  1.45           estimate D2E/DX2                !
 ! R4    R(1,9)                  1.45           estimate D2E/DX2                !
 ! R5    R(3,4)                  0.95           estimate D2E/DX2                !
 ! R6    R(5,6)                  1.089          estimate D2E/DX2                !
 ! R7    R(5,7)                  1.089          estimate D2E/DX2                !
 ! R8    R(5,8)                  1.089          estimate D2E/DX2                !
 ! R9    R(9,10)                 1.4            estimate D2E/DX2                !
 ! R10   R(9,14)                 1.4            estimate D2E/DX2                !
 ! R11   R(10,11)                1.4            estimate D2E/DX2                !
 ! R12   R(10,15)                1.089          estimate D2E/DX2                !
 ! R13   R(11,12)                1.4            estimate D2E/DX2                !
 ! R14   R(11,16)                1.089          estimate D2E/DX2                !
 ! R15   R(12,13)                1.4            estimate D2E/DX2                !
 ! R16   R(12,17)                1.089          estimate D2E/DX2                !
 ! R17   R(13,14)                1.4            estimate D2E/DX2                !
 ! R18   R(13,18)                1.089          estimate D2E/DX2                !
 ! R19   R(14,19)                1.089          estimate D2E/DX2                !
 ! A1    A(2,1,3)              109.471          estimate D2E/DX2                !
 ! A2    A(2,1,5)              109.4712         estimate D2E/DX2                !
 ! A3    A(2,1,9)              109.4712         estimate D2E/DX2                !
 ! A4    A(3,1,5)              109.4713         estimate D2E/DX2                !
 ! A5    A(3,1,9)              109.4713         estimate D2E/DX2                !
 ! A6    A(5,1,9)              109.4712         estimate D2E/DX2                !
 ! A7    A(1,3,4)              109.4712         estimate D2E/DX2                !
 ! A8    A(1,5,6)              109.4712         estimate D2E/DX2                !
 ! A9    A(1,5,7)              109.4712         estimate D2E/DX2                !
 ! A10   A(1,5,8)              109.4712         estimate D2E/DX2                !
 ! A11   A(6,5,7)              109.4712         estimate D2E/DX2                !
 ! A12   A(6,5,8)              109.4712         estimate D2E/DX2                !
 ! A13   A(7,5,8)              109.4712         estimate D2E/DX2                !
 ! A14   A(1,9,10)             120.0            estimate D2E/DX2                !
 ! A15   A(1,9,14)             120.0            estimate D2E/DX2                !
 ! A16   A(10,9,14)            120.0            estimate D2E/DX2                !
 ! A17   A(9,10,11)            120.0            estimate D2E/DX2                !
 ! A18   A(9,10,15)            120.0            estimate D2E/DX2                !
 ! A19   A(11,10,15)           120.0            estimate D2E/DX2                !
 ! A20   A(10,11,12)           120.0            estimate D2E/DX2                !
 ! A21   A(10,11,16)           120.0            estimate D2E/DX2                !
 ! A22   A(12,11,16)           120.0            estimate D2E/DX2                !
 ! A23   A(11,12,13)           120.0001         estimate D2E/DX2                !
 ! A24   A(11,12,17)           120.0            estimate D2E/DX2                !
 ! A25   A(13,12,17)           120.0            estimate D2E/DX2                !
 ! A26   A(12,13,14)           120.0            estimate D2E/DX2                !
 ! A27   A(12,13,18)           120.0001         estimate D2E/DX2                !
 ! A28   A(14,13,18)           120.0            estimate D2E/DX2                !
 ! A29   A(9,14,13)            120.0            estimate D2E/DX2                !
 ! A30   A(9,14,19)            120.0            estimate D2E/DX2                !
 ! A31   A(13,14,19)           120.0            estimate D2E/DX2                !
 ! D1    D(2,1,3,4)            -60.0            estimate D2E/DX2                !
 ! D2    D(5,1,3,4)             60.0            estimate D2E/DX2                !
 ! D3    D(9,1,3,4)           -179.9999         estimate D2E/DX2                !
 ! D4    D(2,1,5,6)            180.0            estimate D2E/DX2                !
 ! D5    D(2,1,5,7)            -60.0            estimate D2E/DX2                !
 ! D6    D(2,1,5,8)             60.0            estimate D2E/DX2                !
 ! D7    D(3,1,5,6)             60.0002         estimate D2E/DX2                !
 ! D8    D(3,1,5,7)           -179.9998         estimate D2E/DX2                !
 ! D9    D(3,1,5,8)            -59.9998         estimate D2E/DX2                !
 ! D10   D(9,1,5,6)            -60.0            estimate D2E/DX2                !
 ! D11   D(9,1,5,7)             60.0            estimate D2E/DX2                !
 ! D12   D(9,1,5,8)            180.0            estimate D2E/DX2                !
 ! D13   D(2,1,9,10)          -180.0            estimate D2E/DX2                !
 ! D14   D(2,1,9,14)            -0.0001         estimate D2E/DX2                !
 ! D15   D(3,1,9,10)           -60.0001         estimate D2E/DX2                !
 ! D16   D(3,1,9,14)           119.9998         estimate D2E/DX2                !
 ! D17   D(5,1,9,10)            60.0001         estimate D2E/DX2                !
 ! D18   D(5,1,9,14)          -120.0            estimate D2E/DX2                !
 ! D19   D(1,9,10,11)          180.0            estimate D2E/DX2                !
 ! D20   D(1,9,10,15)           -0.0001         estimate D2E/DX2                !
 ! D21   D(14,9,10,11)           0.0001         estimate D2E/DX2                !
 ! D22   D(14,9,10,15)        -180.0            estimate D2E/DX2                !
 ! D23   D(1,9,14,13)          180.0            estimate D2E/DX2                !
 ! D24   D(1,9,14,19)            0.0001         estimate D2E/DX2                !
 ! D25   D(10,9,14,13)          -0.0001         estimate D2E/DX2                !
 ! D26   D(10,9,14,19)         180.0            estimate D2E/DX2                !
 ! D27   D(9,10,11,12)           0.0            estimate D2E/DX2                !
 ! D28   D(9,10,11,16)         179.9999         estimate D2E/DX2                !
 ! D29   D(15,10,11,12)       -179.9999         estimate D2E/DX2                !
 ! D30   D(15,10,11,16)          0.0            estimate D2E/DX2                !
 ! D31   D(10,11,12,13)          0.0            estimate D2E/DX2                !
 ! D32   D(10,11,12,17)        180.0            estimate D2E/DX2                !
 ! D33   D(16,11,12,13)       -179.9999         estimate D2E/DX2                !
 ! D34   D(16,11,12,17)          0.0001         estimate D2E/DX2                !
 ! D35   D(11,12,13,14)          0.0            estimate D2E/DX2                !
 ! D36   D(11,12,13,18)       -180.0            estimate D2E/DX2                !
 ! D37   D(17,12,13,14)        180.0            estimate D2E/DX2                !
 ! D38   D(17,12,13,18)          0.0            estimate D2E/DX2                !
 ! D39   D(12,13,14,9)           0.0001         estimate D2E/DX2                !
 ! D40   D(12,13,14,19)        180.0            estimate D2E/DX2                !
 ! D41   D(18,13,14,9)        -180.0            estimate D2E/DX2                !
 ! D42   D(18,13,14,19)         -0.0001         estimate D2E/DX2                !
 --------------------------------------------------------------------------------
 Trust Radius=3.00D-01 FncErr=1.00D-07 GrdErr=1.00D-06
 Number of steps in this run=    102 maximum allowed number of steps=    114.
 GradGradGradGradGradGradGradGradGradGradGradGradGradGradGradGradGradGrad

                          Input orientation:                          
 ---------------------------------------------------------------------
 Center     Atomic      Atomic             Coordinates (Angstroms)
 Number     Number       Type             X           Y           Z
 ---------------------------------------------------------------------
      1          6           0        0.000000    0.000000    0.000000
      2          1           0        0.000000    0.000000    1.089000
      3          8           0        1.319934    0.000000   -0.466662
      4          1           0        1.767768    0.775672   -0.149993
      5          6           0       -0.683537    1.183920   -0.483333
      6          1           0       -0.683537    1.183920   -1.572333
      7          1           0       -1.710256    1.183920   -0.120333
      8          1           0       -0.170177    2.073085   -0.120333
      9          6           0       -0.683537   -1.183920   -0.483333
     10          6           0       -0.811447   -1.405468   -1.859762
     11          6           0       -1.471413   -2.548563   -2.326429
     12          6           0       -2.003469   -3.470110   -1.416667
     13          6           0       -1.875559   -3.248563   -0.040238
     14          6           0       -1.215592   -2.105468    0.426429
     15          1           0       -0.397584   -0.688635   -2.567427
     16          1           0       -1.570910   -2.720895   -3.397093
     17          1           0       -2.516829   -4.359275   -1.779667
     18          1           0       -2.289422   -3.965395    0.667427
     19          1           0       -1.116096   -1.933135    1.497093
 ---------------------------------------------------------------------
                    Distance matrix (angstroms):
                    1          2          3          4          5
     1  C    0.000000
     2  H    1.089000   0.000000
     3  O    1.400000   2.040174   0.000000
     4  H    1.936277   2.293856   0.950001   0.000000
     5  C    1.450000   2.083536   2.327196   2.507325   0.000000
     6  H    2.083536   2.991920   2.576445   2.863322   1.089000
     7  H    2.083536   2.406061   3.271645   3.502028   1.089000
     8  H    2.083536   2.406061   2.576443   2.332336   1.089000
     9  C    1.450000   2.083536   2.327196   3.155949   2.367840
    10  C    2.468299   3.365856   2.908411   3.785899   2.935276
    11  C    3.751333   4.508368   4.212544   5.126374   4.236647
    12  C    4.250000   4.725878   4.897875   5.818364   4.926797
    13  C    3.751333   3.917405   4.576699   5.429581   4.611307
    14  C    2.468299   2.519853   3.414601   4.187322   3.454102
    15  H    2.687745   3.741891   2.799518   3.560468   2.816324
    16  H    4.627231   5.476866   4.934336   5.823780   4.952273
    17  H    5.339000   5.793700   5.953823   6.883407   5.980673
    18  H    4.627231   4.598210   5.480690   6.293384   5.515302
    19  H    2.687744   2.269190   3.677987   4.285697   3.718229
                    6          7          8          9         10
     6  H    0.000000
     7  H    1.778330   0.000000
     8  H    1.778330   1.778330   0.000000
     9  C    2.606259   2.606259   3.317136   0.000000
    10  C    2.608430   3.246290   3.941722   1.400000   0.000000
    11  C    3.888552   4.342273   5.283910   2.424872   1.400000
    12  C    4.840088   4.840088   5.980673   2.800000   2.424870
    13  C    4.838919   4.436287   5.588800   2.424871   2.800000
    14  C    3.885641   3.371011   4.341906   1.400000   2.424872
    15  H    2.139730   3.349304   3.696901   2.161140   1.089000
    16  H    4.400541   5.099427   5.973395   3.411703   2.161138
    17  H    5.842171   5.842171   7.045241   3.889000   3.411703
    18  H    5.840448   5.241321   6.447868   3.411703   3.889000
    19  H    4.395966   3.561618   4.422740   2.161138   3.411703
                   11         12         13         14         15
    11  C    0.000000
    12  C    1.400000   0.000000
    13  C    2.424872   1.400000   0.000000
    14  C    2.800001   2.424871   1.400000   0.000000
    15  H    2.161139   3.411703   3.889001   3.411704   0.000000
    16  H    1.088999   2.161138   3.411703   3.889000   2.489000
    17  H    2.161139   1.089000   2.161139   3.411704   4.311074
    18  H    3.411704   2.161140   1.089000   2.161138   4.978000
    19  H    3.889000   3.411703   2.161139   1.088999   4.311074
                   16         17         18         19
    16  H    0.000000
    17  H    2.489000   0.000000
    18  H    4.311074   2.489001   0.000000
    19  H    4.977999   4.311075   2.489000   0.000000
 Stoichiometry    C8H10O
 Framework group  C1[X(C8H10O)]
 Deg. of freedom    51
 Full point group                 C1      NOp   1
 Largest Abelian subgroup         C1      NOp   1
 Largest concise Abelian subgroup C1      NOp   1
                         Standard orientation:                         
 ---------------------------------------------------------------------
 Center     Atomic      Atomic             Coordinates (Angstroms)
 Number     Number       Type             X           Y           Z
 ---------------------------------------------------------------------
      1          6           0        1.606163   -0.428820   -0.025466
      2          1           0        1.806580   -1.498982   -0.002946
      3          8           0        2.157374    0.124838   -1.187201
      4          1           0        3.095976   -0.021756   -1.193339
      5          6           0        2.201018    0.198915    1.138406
      6          1           0        2.000601    1.269077    1.115886
      7          1           0        1.772256   -0.231755    2.042069
      8          1           0        3.276952    0.030874    1.131369
      9          6           0        0.173561   -0.205075   -0.016097
     10          6           0       -0.331191    1.100532   -0.040938
     11          6           0       -1.714393    1.316563   -0.031893
     12          6           0       -2.592844    0.226987    0.001993
     13          6           0       -2.088092   -1.078620    0.026834
     14          6           0       -0.704890   -1.294651    0.017788
     15          1           0        0.352118    1.948067   -0.067296
     16          1           0       -2.107018    2.332138   -0.051214
     17          1           0       -3.668778    0.395027    0.009029
     18          1           0       -2.771401   -1.926155    0.053192
     19          1           0       -0.312265   -2.310226    0.037110
 ---------------------------------------------------------------------
 Rotational constants (GHZ):      3.5549708      1.1418865      1.0263425
 Standard basis: 6-311G(d,p) (5D, 7F)
 There are   222 symmetry adapted basis functions of A   symmetry.
 Integral buffers will be    131072 words long.
 Raffenetti 2 integral format.
 Two-electron integral symmetry is turned on.
   222 basis functions,   368 primitive gaussians,   231 cartesian basis functions
    33 alpha electrons       33 beta electrons
       nuclear repulsion energy       430.4179854834 Hartrees.
 NAtoms=   19 NActive=   19 NUniq=   19 SFac= 1.00D+00 NAtFMM=   50 NAOKFM=F Big=F
 One-electron integrals computed using PRISM.
 NBasis=   222 RedAO= T  NBF=   222
 NBsUse=   222 1.00D-06 NBFU=   222
 Harris functional with IExCor=  402 diagonalized for initial guess.
 ExpMin= 1.03D-01 ExpMax= 8.59D+03 ExpMxC= 1.30D+03 IAcc=1 IRadAn=         1 AccDes= 0.00D+00
 HarFok:  IExCor=  402 AccDes= 0.00D+00 IRadAn=         1 IDoV= 1
 ScaDFX=  1.000000  1.000000  1.000000  1.000000
 FoFCou: FMM=F IPFlag=           0 FMFlag=      100000 FMFlg1=           0
         NFxFlg=           0 DoJE=T BraDBF=F KetDBF=T FulRan=T
         Omega=  0.000000  0.000000  1.000000  0.000000  0.000000 ICntrl=     500 IOpCl=  0
         NMat0=    1 NMatS0=    1 NMatT0=    0 NMatD0=    1 NMtDS0=    0 NMtDT0=    0
         I1Cent=           4 NGrid=           0.
 Petite list used in FoFCou.
 Initial guess orbital symmetries:
       Occupied  (A) (A) (A) (A) (A) (A) (A) (A) (A) (A) (A) (A)
                 (A) (A) (A) (A) (A) (A) (A) (A) (A) (A) (A) (A)
                 (A) (A) (A) (A) (A) (A) (A) (A) (A)
       Virtual   (A) (A) (A) (A) (A) (A) (A) (A) (A) (A) (A) (A)
                 (A) (A) (A) (A) (A) (A) (A) (A) (A) (A) (A) (A)
                 (A) (A) (A) (A) (A) (A) (A) (A) (A) (A) (A) (A)
                 (A) (A) (A) (A) (A) (A) (A) (A) (A) (A) (A) (A)
                 (A) (A) (A) (A) (A) (A) (A) (A) (A) (A) (A) (A)
                 (A) (A) (A) (A) (A) (A) (A) (A) (A) (A) (A) (A)
                 (A) (A) (A) (A) (A) (A) (A) (A) (A) (A) (A) (A)
                 (A) (A) (A) (A) (A) (A) (A) (A) (A) (A) (A) (A)
                 (A) (A) (A) (A) (A) (A) (A) (A) (A) (A) (A) (A)
                 (A) (A) (A) (A) (A) (A) (A) (A) (A) (A) (A) (A)
                 (A) (A) (A) (A) (A) (A) (A) (A) (A) (A) (A) (A)
                 (A) (A) (A) (A) (A) (A) (A) (A) (A) (A) (A) (A)
                 (A) (A) (A) (A) (A) (A) (A) (A) (A) (A) (A) (A)
                 (A) (A) (A) (A) (A) (A) (A) (A) (A) (A) (A) (A)
                 (A) (A) (A) (A) (A) (A) (A) (A) (A) (A) (A) (A)
                 (A) (A) (A) (A) (A) (A) (A) (A) (A)
 The electronic state of the initial guess is 1-A.
 Requested convergence on RMS density matrix=1.00D-08 within 128 cycles.
 Requested convergence on MAX density matrix=1.00D-06.
 Requested convergence on             energy=1.00D-06.
 No special actions if energy rises.
 Keep R1 ints in memory in canonical form, NReq=365611859.
 Integral accuracy reduced to 1.0D-05 until final iterations.
 Initial convergence to 1.0D-05 achieved.  Increase integral accuracy.
 SCF Done:  E(RB3LYP) =  -386.182965177     A.U. after   13 cycles
             Convg  =    0.7984D-08             -V/T =  2.0033

 **********************************************************************

            Population analysis using the SCF density.

 **********************************************************************

 Orbital symmetries:
       Occupied  (A) (A) (A) (A) (A) (A) (A) (A) (A) (A) (A) (A)
                 (A) (A) (A) (A) (A) (A) (A) (A) (A) (A) (A) (A)
                 (A) (A) (A) (A) (A) (A) (A) (A) (A)
       Virtual   (A) (A) (A) (A) (A) (A) (A) (A) (A) (A) (A) (A)
                 (A) (A) (A) (A) (A) (A) (A) (A) (A) (A) (A) (A)
                 (A) (A) (A) (A) (A) (A) (A) (A) (A) (A) (A) (A)
                 (A) (A) (A) (A) (A) (A) (A) (A) (A) (A) (A) (A)
                 (A) (A) (A) (A) (A) (A) (A) (A) (A) (A) (A) (A)
                 (A) (A) (A) (A) (A) (A) (A) (A) (A) (A) (A) (A)
                 (A) (A) (A) (A) (A) (A) (A) (A) (A) (A) (A) (A)
                 (A) (A) (A) (A) (A) (A) (A) (A) (A) (A) (A) (A)
                 (A) (A) (A) (A) (A) (A) (A) (A) (A) (A) (A) (A)
                 (A) (A) (A) (A) (A) (A) (A) (A) (A) (A) (A) (A)
                 (A) (A) (A) (A) (A) (A) (A) (A) (A) (A) (A) (A)
                 (A) (A) (A) (A) (A) (A) (A) (A) (A) (A) (A) (A)
                 (A) (A) (A) (A) (A) (A) (A) (A) (A) (A) (A) (A)
                 (A) (A) (A) (A) (A) (A) (A) (A) (A) (A) (A) (A)
                 (A) (A) (A) (A) (A) (A) (A) (A) (A) (A) (A) (A)
                 (A) (A) (A) (A) (A) (A) (A) (A) (A)
 The electronic state is 1-A.
 Alpha  occ. eigenvalues --  -19.10752 -10.21196 -10.17418 -10.17407 -10.17331
 Alpha  occ. eigenvalues --  -10.17302 -10.17276 -10.17164 -10.15573  -1.03376
 Alpha  occ. eigenvalues --   -0.85869  -0.79425  -0.74561  -0.72795  -0.64377
 Alpha  occ. eigenvalues --   -0.61053  -0.57620  -0.52109  -0.51685  -0.47184
 Alpha  occ. eigenvalues --   -0.45865  -0.43961  -0.43095  -0.41929  -0.39698
 Alpha  occ. eigenvalues --   -0.38299  -0.36084  -0.35239  -0.34346  -0.32538
 Alpha  occ. eigenvalues --   -0.27458  -0.25353  -0.24730
 Alpha virt. eigenvalues --   -0.01146  -0.00855   0.03304   0.05242   0.06609
 Alpha virt. eigenvalues --    0.08317   0.09632   0.10016   0.11383   0.12133
 Alpha virt. eigenvalues --    0.14376   0.14722   0.17336   0.21561   0.22713
 Alpha virt. eigenvalues --    0.24629   0.27062   0.27843   0.29595   0.30208
 Alpha virt. eigenvalues --    0.31366   0.32461   0.34564   0.36555   0.39345
 Alpha virt. eigenvalues --    0.40222   0.40774   0.41359   0.43018   0.43888
 Alpha virt. eigenvalues --    0.45355   0.45590   0.45980   0.48370   0.50682
 Alpha virt. eigenvalues --    0.52676   0.53973   0.55616   0.56322   0.58699
 Alpha virt. eigenvalues --    0.59102   0.59838   0.60122   0.60780   0.61609
 Alpha virt. eigenvalues --    0.62906   0.63531   0.65994   0.66030   0.68977
 Alpha virt. eigenvalues --    0.71312   0.73632   0.73689   0.78534   0.79803
 Alpha virt. eigenvalues --    0.80261   0.82813   0.84299   0.85917   0.87526
 Alpha virt. eigenvalues --    0.89219   0.92800   0.97968   1.00915   1.01096
 Alpha virt. eigenvalues --    1.03622   1.04892   1.06594   1.08322   1.12340
 Alpha virt. eigenvalues --    1.14969   1.16241   1.23339   1.25849   1.28843
 Alpha virt. eigenvalues --    1.33102   1.35779   1.38429   1.42916   1.43624
 Alpha virt. eigenvalues --    1.44483   1.47730   1.48680   1.50173   1.51660
 Alpha virt. eigenvalues --    1.52528   1.53619   1.55243   1.56385   1.58313
 Alpha virt. eigenvalues --    1.59688   1.61651   1.62222   1.66992   1.68620
 Alpha virt. eigenvalues --    1.70948   1.72008   1.73690   1.76391   1.77385
 Alpha virt. eigenvalues --    1.79813   1.81196   1.85425   1.87239   1.88793
 Alpha virt. eigenvalues --    1.89628   1.90451   1.90763   1.92548   1.94597
 Alpha virt. eigenvalues --    1.95956   1.98110   2.02285   2.03403   2.06564
 Alpha virt. eigenvalues --    2.09417   2.12289   2.13603   2.15971   2.24835
 Alpha virt. eigenvalues --    2.26175   2.29571   2.30904   2.33709   2.38094
 Alpha virt. eigenvalues --    2.38527   2.39912   2.40531   2.48987   2.52374
 Alpha virt. eigenvalues --    2.54505   2.55378   2.56066   2.56945   2.60335
 Alpha virt. eigenvalues --    2.60919   2.61581   2.63673   2.63962   2.66270
 Alpha virt. eigenvalues --    2.67687   2.70705   2.72293   2.72916   2.75059
 Alpha virt. eigenvalues --    2.77416   2.81934   2.84756   2.86859   2.88189
 Alpha virt. eigenvalues --    2.89939   2.97929   3.01907   3.07225   3.12383
 Alpha virt. eigenvalues --    3.17742   3.19716   3.26119   3.33624   3.34172
 Alpha virt. eigenvalues --    3.37896   3.46139   3.46680   3.46997   3.60515
 Alpha virt. eigenvalues --    3.66039   3.82052   3.84953   3.86994   3.94434
 Alpha virt. eigenvalues --    3.97747   4.02152   4.12454   4.13913   4.24016
 Alpha virt. eigenvalues --    4.42771   4.83443   4.93989   5.31034   5.71248
 Alpha virt. eigenvalues --   23.54271  23.90463  23.93294  23.94416  23.99495
 Alpha virt. eigenvalues --   24.07848  24.08006  24.17533  49.92230
          Condensed to atoms (all electrons):
              1          2          3          4          5          6
     1  C    4.801416   0.416749   0.273969  -0.040019   0.378905  -0.033979
     2  H    0.416749   0.645615  -0.033345  -0.007186  -0.050718   0.011682
     3  O    0.273969  -0.033345   7.938477   0.313397  -0.056354   0.004010
     4  H   -0.040019  -0.007186   0.313397   0.488291  -0.004269  -0.000833
     5  C    0.378905  -0.050718  -0.056354  -0.004269   4.924861   0.406284
     6  H   -0.033979   0.011682   0.004010  -0.000833   0.406284   0.577036
     7  H   -0.037824  -0.000754   0.007473  -0.000620   0.376435  -0.023504
     8  H   -0.036877  -0.012310  -0.001846   0.005967   0.386677  -0.032387
     9  C    0.340411  -0.073304  -0.085421   0.014761  -0.086124  -0.022090
    10  C   -0.051628   0.013557   0.012439  -0.000697  -0.025432   0.005578
    11  C    0.003161  -0.000233   0.000182   0.000025   0.000322   0.000601
    12  C    0.000717  -0.000025   0.000034  -0.000003  -0.000038  -0.000032
    13  C    0.005759   0.000687  -0.000186   0.000019  -0.000912   0.000039
    14  C   -0.049846  -0.010919   0.000675  -0.000185   0.001586   0.000118
    15  H   -0.004465   0.000815   0.008583  -0.000568  -0.004868   0.003664
    16  H   -0.000429   0.000022  -0.000026  -0.000002   0.000032   0.000027
    17  H    0.000047  -0.000001   0.000000   0.000000   0.000000   0.000001
    18  H   -0.000440  -0.000050   0.000004  -0.000002   0.000021   0.000001
    19  H   -0.010175   0.006835  -0.000030  -0.000071   0.000060  -0.000021
              7          8          9         10         11         12
     1  C   -0.037824  -0.036877   0.340411  -0.051628   0.003161   0.000717
     2  H   -0.000754  -0.012310  -0.073304   0.013557  -0.000233  -0.000025
     3  O    0.007473  -0.001846  -0.085421   0.012439   0.000182   0.000034
     4  H   -0.000620   0.005967   0.014761  -0.000697   0.000025  -0.000003
     5  C    0.376435   0.386677  -0.086124  -0.025432   0.000322  -0.000038
     6  H   -0.023504  -0.032387  -0.022090   0.005578   0.000601  -0.000032
     7  H    0.597150  -0.023148   0.000310   0.000903  -0.000211  -0.000013
     8  H   -0.023148   0.615538   0.016198   0.000288   0.000006  -0.000003
     9  C    0.000310   0.016198   5.230371   0.446609  -0.047994  -0.040792
    10  C    0.000903   0.000288   0.446609   4.862443   0.527263  -0.059273
    11  C   -0.000211   0.000006  -0.047994   0.527263   4.849976   0.515092
    12  C   -0.000013  -0.000003  -0.040792  -0.059273   0.515092   4.867767
    13  C    0.000027   0.000032  -0.053066  -0.037128  -0.053433   0.522511
    14  C    0.001234  -0.000341   0.541322  -0.055586  -0.038877  -0.059955
    15  H    0.000707  -0.000405  -0.052268   0.417591  -0.036553   0.007476
    16  H    0.000002  -0.000003   0.008297  -0.041822   0.413106  -0.043144
    17  H   -0.000001   0.000000  -0.000617   0.007751  -0.042859   0.414788
    18  H    0.000001  -0.000002   0.008810  -0.000270   0.007249  -0.043132
    19  H    0.000380  -0.000080  -0.046646   0.008123  -0.000724   0.007645
             13         14         15         16         17         18
     1  C    0.005759  -0.049846  -0.004465  -0.000429   0.000047  -0.000440
     2  H    0.000687  -0.010919   0.000815   0.000022  -0.000001  -0.000050
     3  O   -0.000186   0.000675   0.008583  -0.000026   0.000000   0.000004
     4  H    0.000019  -0.000185  -0.000568  -0.000002   0.000000  -0.000002
     5  C   -0.000912   0.001586  -0.004868   0.000032   0.000000   0.000021
     6  H    0.000039   0.000118   0.003664   0.000027   0.000001   0.000001
     7  H    0.000027   0.001234   0.000707   0.000002  -0.000001   0.000001
     8  H    0.000032  -0.000341  -0.000405  -0.000003   0.000000  -0.000002
     9  C   -0.053066   0.541322  -0.052268   0.008297  -0.000617   0.008810
    10  C   -0.037128  -0.055586   0.417591  -0.041822   0.007751  -0.000270
    11  C   -0.053433  -0.038877  -0.036553   0.413106  -0.042859   0.007249
    12  C    0.522511  -0.059955   0.007476  -0.043144   0.414788  -0.043132
    13  C    4.851132   0.524606  -0.000564   0.007126  -0.042441   0.412524
    14  C    0.524606   4.832617   0.006489  -0.000065   0.007700  -0.042036
    15  H   -0.000564   0.006489   0.569512  -0.007759  -0.000322   0.000074
    16  H    0.007126  -0.000065  -0.007759   0.579295  -0.007903  -0.000367
    17  H   -0.042441   0.007700  -0.000322  -0.007903   0.578917  -0.008020
    18  H    0.412524  -0.042036   0.000074  -0.000367  -0.008020   0.581316
    19  H   -0.038943   0.413690  -0.000285   0.000075  -0.000334  -0.007925
             19
     1  C   -0.010175
     2  H    0.006835
     3  O   -0.000030
     4  H   -0.000071
     5  C    0.000060
     6  H   -0.000021
     7  H    0.000380
     8  H   -0.000080
     9  C   -0.046646
    10  C    0.008123
    11  C   -0.000724
    12  C    0.007645
    13  C   -0.038943
    14  C    0.413690
    15  H   -0.000285
    16  H    0.000075
    17  H   -0.000334
    18  H   -0.007925
    19  H    0.584309
 Mulliken atomic charges:
              1
     1  C    0.044548
     2  H    0.092882
     3  O   -0.382036
     4  H    0.231994
     5  C   -0.246468
     6  H    0.103805
     7  H    0.101454
     8  H    0.082696
     9  C   -0.098768
    10  C   -0.030710
    11  C   -0.096098
    12  C   -0.089621
    13  C   -0.097792
    14  C   -0.072227
    15  H    0.093148
    16  H    0.093538
    17  H    0.093294
    18  H    0.092244
    19  H    0.084116
 Sum of Mulliken atomic charges =   0.00000
 Mulliken charges with hydrogens summed into heavy atoms:
              1
     1  C    0.137430
     3  O   -0.150042
     5  C    0.041487
     9  C   -0.098768
    10  C    0.062438
    11  C   -0.002559
    12  C    0.003673
    13  C   -0.005548
    14  C    0.011889
 Sum of Mulliken charges with hydrogens summed into heavy atoms =   0.00000
 Electronic spatial extent (au):  <R**2>=           1231.1563
 Charge=              0.0000 electrons
 Dipole moment (field-independent basis, Debye):
    X=              0.9429    Y=             -0.5842    Z=              1.0119  Tot=              1.5015
 Quadrupole moment (field-independent basis, Debye-Ang):
   XX=            -44.7050   YY=            -50.1791   ZZ=            -59.7962
   XY=             -1.6135   XZ=              0.2453   YZ=              0.2765
 Traceless Quadrupole moment (field-independent basis, Debye-Ang):
   XX=              6.8551   YY=              1.3810   ZZ=             -8.2361
   XY=             -1.6135   XZ=              0.2453   YZ=              0.2765
 Octapole moment (field-independent basis, Debye-Ang**2):
  XXX=             27.3681  YYY=              0.6640  ZZZ=             -2.7772  XYY=             -0.3773
  XXY=             -3.6500  XXZ=             -8.3114  XZZ=              7.0470  YZZ=             -1.0314
  YYZ=             -1.6388  XYZ=              1.2702
 Hexadecapole moment (field-independent basis, Debye-Ang**3):
 XXXX=           -967.5536 YYYY=           -316.7846 ZZZZ=           -191.2171 XXXY=            -10.2072
 XXXZ=            -49.3492 YYYX=             -0.3732 YYYZ=             -0.9368 ZZZX=            -12.6538
 ZZZY=             -1.6420 XXYY=           -234.3663 XXZZ=           -231.2610 YYZZ=            -95.0796
 XXYZ=              1.2078 YYXZ=             -3.8628 ZZXY=             -1.8516
 N-N= 4.304179854834D+02 E-N=-1.760187173553D+03  KE= 3.849151528946D+02
 Calling FoFJK, ICntrl=      2127 FMM=F ISym2X=0 I1Cent= 0 IOpClX= 0 NMat=1 NMatS=1 NMatT=0.
 ***** Axes restored to original set *****
 -------------------------------------------------------------------
 Center     Atomic                   Forces (Hartrees/Bohr)
 Number     Number              X              Y              Z
 -------------------------------------------------------------------
      1        6           0.017603568    0.001374320    0.021909685
      2        1          -0.000891815   -0.001925987    0.008277476
      3        8           0.022862919   -0.018064641   -0.012937923
      4        1           0.004182432    0.010812630    0.004240067
      5        6          -0.020988623    0.037657871   -0.007172483
      6        1          -0.001653342    0.004840815   -0.000961591
      7        1          -0.004052554    0.005756313   -0.001230219
      8        1          -0.001876314    0.007498592   -0.000678914
      9        6          -0.011748219   -0.037472754   -0.005485745
     10        6          -0.005112799   -0.010016281   -0.002725321
     11        6           0.001446161    0.002598704    0.003185918
     12        6           0.000700836    0.001034150    0.002055542
     13        6          -0.000435989    0.001423658   -0.002231631
     14        6          -0.003483478   -0.006216906   -0.007976780
     15        1          -0.000169005   -0.003947826    0.002675592
     16        1           0.000354810    0.000474673    0.003065079
     17        1           0.001540524    0.002510591    0.001119192
     18        1           0.001153070    0.001883008   -0.002107879
     19        1           0.000567818   -0.000220930   -0.003020066
 -------------------------------------------------------------------
 Cartesian Forces:  Max     0.037657871 RMS     0.010256336

 GradGradGradGradGradGradGradGradGradGradGradGradGradGradGradGradGradGrad
 Berny optimization.
 Internal  Forces:  Max     0.062345676 RMS     0.009745231
 Search for a local minimum.
 Step number   1 out of a maximum of  102
 All quantities printed in internal units (Hartrees-Bohrs-Radians)
 Mixed Optimization -- RFO/linear search
 Second derivative matrix not updated -- first step.
 ITU=  0
     Eigenvalues ---    0.01427   0.01427   0.01692   0.01824   0.02089
     Eigenvalues ---    0.02089   0.02089   0.02089   0.02089   0.02089
     Eigenvalues ---    0.02089   0.02089   0.05930   0.06214   0.06496
     Eigenvalues ---    0.06496   0.08069   0.16000   0.16000   0.16000
     Eigenvalues ---    0.16000   0.16000   0.16000   0.16000   0.16000
     Eigenvalues ---    0.16000   0.17408   0.19908   0.22000   0.22000
     Eigenvalues ---    0.23485   0.25000   0.34928   0.34928   0.34928
     Eigenvalues ---    0.34928   0.34928   0.34928   0.34928   0.34929
     Eigenvalues ---    0.34929   0.38245   0.38245   0.41452   0.41643
     Eigenvalues ---    0.45620   0.45621   0.45621   0.45621   0.45621
     Eigenvalues ---    0.57681
 RFO step:  Lambda=-2.43456520D-02 EMin= 1.42735074D-02
 Linear search not attempted -- first point.
 Iteration  1 RMS(Cart)=  0.09665486 RMS(Int)=  0.00203693
 Iteration  2 RMS(Cart)=  0.00373110 RMS(Int)=  0.00049966
 Iteration  3 RMS(Cart)=  0.00001143 RMS(Int)=  0.00049962
 Iteration  4 RMS(Cart)=  0.00000002 RMS(Int)=  0.00049962
 Variable       Old X    -DE/DX   Delta X   Delta X   Delta X     New X
                                 (Linear)    (Quad)   (Total)
    R1        2.05791   0.00827   0.00000   0.02215   0.02215   2.08006
    R2        2.64562   0.02840   0.00000   0.05910   0.05910   2.70472
    R3        2.74010   0.06235   0.00000   0.15326   0.15326   2.89336
    R4        2.74010   0.05012   0.00000   0.12321   0.12321   2.86331
    R5        1.79524   0.01221   0.00000   0.02031   0.02031   1.81556
    R6        2.05791   0.00097   0.00000   0.00259   0.00259   2.06050
    R7        2.05791   0.00341   0.00000   0.00912   0.00912   2.06703
    R8        2.05791   0.00501   0.00000   0.01341   0.01341   2.07132
    R9        2.64562   0.00035   0.00000   0.00105   0.00108   2.64670
   R10        2.64562  -0.00213   0.00000  -0.00412  -0.00409   2.64153
   R11        2.64562  -0.00708   0.00000  -0.01471  -0.01471   2.63091
   R12        2.05791  -0.00440   0.00000  -0.01179  -0.01179   2.04613
   R13        2.64562  -0.00605   0.00000  -0.01290  -0.01293   2.63269
   R14        2.05791  -0.00312   0.00000  -0.00836  -0.00836   2.04955
   R15        2.64562  -0.00830   0.00000  -0.01762  -0.01765   2.62797
   R16        2.05791  -0.00315   0.00000  -0.00843  -0.00843   2.04948
   R17        2.64562  -0.00497   0.00000  -0.01036  -0.01036   2.63526
   R18        2.05791  -0.00305   0.00000  -0.00815  -0.00815   2.04976
   R19        2.05791  -0.00295   0.00000  -0.00789  -0.00789   2.05002
    A1        1.91063   0.00215   0.00000  -0.00667  -0.00746   1.90317
    A2        1.91063  -0.00653   0.00000  -0.03403  -0.03285   1.87778
    A3        1.91063  -0.00454   0.00000  -0.03923  -0.03909   1.87154
    A4        1.91064   0.00310   0.00000   0.03321   0.03303   1.94367
    A5        1.91064  -0.00993   0.00000  -0.03568  -0.03862   1.87201
    A6        1.91063   0.01575   0.00000   0.08240   0.08243   1.99307
    A7        1.91063  -0.00293   0.00000  -0.01589  -0.01589   1.89474
    A8        1.91063   0.00479   0.00000   0.02640   0.02590   1.93653
    A9        1.91063   0.00689   0.00000   0.03816   0.03755   1.94818
   A10        1.91063   0.00598   0.00000   0.03125   0.03078   1.94141
   A11        1.91063  -0.00532   0.00000  -0.02650  -0.02710   1.88353
   A12        1.91063  -0.00574   0.00000  -0.03272  -0.03305   1.87759
   A13        1.91063  -0.00660   0.00000  -0.03659  -0.03715   1.87349
   A14        2.09439   0.00633   0.00000   0.02278   0.02275   2.11714
   A15        2.09440   0.00255   0.00000   0.00900   0.00896   2.10336
   A16        2.09440  -0.00888   0.00000  -0.03178  -0.03174   2.06265
   A17        2.09440   0.00360   0.00000   0.01481   0.01479   2.10918
   A18        2.09440  -0.00155   0.00000  -0.00603  -0.00607   2.08833
   A19        2.09439  -0.00206   0.00000  -0.00878  -0.00882   2.08557
   A20        2.09439   0.00144   0.00000   0.00464   0.00461   2.09900
   A21        2.09440  -0.00073   0.00000  -0.00239  -0.00237   2.09202
   A22        2.09440  -0.00071   0.00000  -0.00226  -0.00224   2.09216
   A23        2.09440  -0.00132   0.00000  -0.00738  -0.00746   2.08694
   A24        2.09439   0.00075   0.00000   0.00415   0.00418   2.09857
   A25        2.09439   0.00058   0.00000   0.00323   0.00326   2.09766
   A26        2.09439   0.00022   0.00000  -0.00047  -0.00052   2.09388
   A27        2.09440  -0.00027   0.00000  -0.00066  -0.00065   2.09375
   A28        2.09439   0.00006   0.00000   0.00113   0.00114   2.09554
   A29        2.09439   0.00494   0.00000   0.02018   0.02019   2.11458
   A30        2.09439  -0.00314   0.00000  -0.01370  -0.01371   2.08068
   A31        2.09440  -0.00180   0.00000  -0.00648  -0.00649   2.08791
    D1       -1.04720  -0.00226   0.00000  -0.02631  -0.02621  -1.07340
    D2        1.04720  -0.00705   0.00000  -0.05174  -0.05109   0.99610
    D3       -3.14159   0.00806   0.00000   0.04767   0.04691  -3.09468
    D4        3.14159  -0.00038   0.00000  -0.00522  -0.00532   3.13628
    D5       -1.04720   0.00025   0.00000   0.00186   0.00185  -1.04535
    D6        1.04720   0.00004   0.00000  -0.00045  -0.00042   1.04678
    D7        1.04720  -0.00091   0.00000   0.00346   0.00441   1.05161
    D8       -3.14159  -0.00028   0.00000   0.01054   0.01157  -3.13002
    D9       -1.04719  -0.00048   0.00000   0.00823   0.00930  -1.03789
   D10       -1.04720  -0.00029   0.00000  -0.02364  -0.02471  -1.07191
   D11        1.04720   0.00034   0.00000  -0.01656  -0.01754   1.02966
   D12        3.14159   0.00014   0.00000  -0.01887  -0.01981   3.12178
   D13       -3.14159   0.00332   0.00000   0.05447   0.05371  -3.08788
   D14        0.00000   0.00295   0.00000   0.04569   0.04484   0.04484
   D15       -1.04720  -0.00291   0.00000   0.00042   0.00146  -1.04574
   D16        2.09439  -0.00328   0.00000  -0.00836  -0.00741   2.08698
   D17        1.04720   0.00445   0.00000   0.06971   0.06957   1.11677
   D18       -2.09440   0.00408   0.00000   0.06093   0.06070  -2.03370
   D19        3.14159   0.00014   0.00000   0.00292   0.00292  -3.13867
   D20        0.00000   0.00084   0.00000   0.01828   0.01828   0.01828
   D21        0.00000   0.00052   0.00000   0.01170   0.01159   0.01159
   D22       -3.14159   0.00121   0.00000   0.02706   0.02695  -3.11464
   D23        3.14159  -0.00045   0.00000  -0.00960  -0.00969   3.13190
   D24        0.00000  -0.00019   0.00000  -0.00397  -0.00402  -0.00402
   D25        0.00000  -0.00082   0.00000  -0.01838  -0.01829  -0.01829
   D26        3.14159  -0.00057   0.00000  -0.01275  -0.01262   3.12898
   D27        0.00000   0.00004   0.00000   0.00072   0.00061   0.00061
   D28        3.14159   0.00015   0.00000   0.00326   0.00321  -3.13838
   D29       -3.14159  -0.00066   0.00000  -0.01465  -0.01473   3.12686
   D30        0.00000  -0.00055   0.00000  -0.01210  -0.01213  -0.01213
   D31        0.00000  -0.00029   0.00000  -0.00646  -0.00647  -0.00647
   D32        3.14159  -0.00001   0.00000  -0.00015  -0.00008   3.14151
   D33       -3.14159  -0.00040   0.00000  -0.00900  -0.00907   3.13252
   D34        0.00000  -0.00012   0.00000  -0.00269  -0.00269  -0.00269
   D35        0.00000  -0.00001   0.00000  -0.00022  -0.00012  -0.00012
   D36       -3.14159   0.00031   0.00000   0.00691   0.00702  -3.13457
   D37        3.14159  -0.00029   0.00000  -0.00653  -0.00650   3.13509
   D38        0.00000   0.00003   0.00000   0.00060   0.00064   0.00064
   D39        0.00000   0.00057   0.00000   0.01264   0.01277   0.01277
   D40        3.14159   0.00031   0.00000   0.00701   0.00707  -3.13453
   D41       -3.14159   0.00025   0.00000   0.00551   0.00561  -3.13598
   D42        0.00000  -0.00001   0.00000  -0.00012  -0.00008  -0.00009
         Item               Value     Threshold  Converged?
 Maximum Force            0.062346     0.000450     NO 
 RMS     Force            0.009745     0.000300     NO 
 Maximum Displacement     0.486909     0.001800     NO 
 RMS     Displacement     0.098236     0.001200     NO 
 Predicted change in Energy=-1.323183D-02
 GradGradGradGradGradGradGradGradGradGradGradGradGradGradGradGradGradGrad

                          Input orientation:                          
 ---------------------------------------------------------------------
 Center     Atomic      Atomic             Coordinates (Angstroms)
 Number     Number       Type             X           Y           Z
 ---------------------------------------------------------------------
      1          6           0        0.001770    0.028977   -0.022201
      2          1           0        0.010687   -0.017632    1.077495
      3          8           0        1.349077   -0.020621   -0.502674
      4          1           0        1.823232    0.742765   -0.162880
      5          6           0       -0.686026    1.336460   -0.424319
      6          1           0       -0.720067    1.441581   -1.509075
      7          1           0       -1.712439    1.383878   -0.049239
      8          1           0       -0.151435    2.205650   -0.024130
      9          6           0       -0.698797   -1.219434   -0.518696
     10          6           0       -0.817727   -1.491550   -1.887423
     11          6           0       -1.466451   -2.639890   -2.333226
     12          6           0       -2.010108   -3.539118   -1.418503
     13          6           0       -1.894063   -3.286523   -0.055905
     14          6           0       -1.236570   -2.139009    0.386360
     15          1           0       -0.387761   -0.808094   -2.608806
     16          1           0       -1.546762   -2.836367   -3.396828
     17          1           0       -2.515450   -4.433514   -1.766226
     18          1           0       -2.309275   -3.985680    0.661956
     19          1           0       -1.143497   -1.950788    1.450667
 ---------------------------------------------------------------------
                    Distance matrix (angstroms):
                    1          2          3          4          5
     1  C    0.000000
     2  H    1.100719   0.000000
     3  O    1.431276   2.070804   0.000000
     4  H    1.961380   2.324232   0.960751   0.000000
     5  C    1.531102   2.138789   2.447335   2.591756   0.000000
     6  H    2.174234   3.058374   2.726212   2.961243   1.090370
     7  H    2.185178   2.490567   3.398690   3.595123   1.093827
     8  H    2.182059   2.486532   2.727054   2.461421   1.096097
     9  C    1.515199   2.120264   2.373014   3.215192   2.557667
    10  C    2.542170   3.413128   2.962465   3.865344   3.186795
    11  C    3.823527   4.548757   4.258953   5.193724   4.479324
    12  C    4.327657   4.765971   4.950019   5.882653   5.149064
    13  C    3.819406   3.949471   4.624249   5.483147   4.792396
    14  C    2.529935   2.556082   3.458832   4.238948   3.610981
    15  H    2.746443   3.791096   2.841216   3.643654   3.075721
    16  H    4.690017   5.512757   4.968947   5.884341   5.195110
    17  H    5.412194   5.828219   6.000396   6.941812   6.200009
    18  H    4.682571   4.615225   5.519202   6.333732   5.669224
    19  H    2.720376   2.282212   3.708640   4.319751   3.811935
                    6          7          8          9         10
     6  H    0.000000
     7  H    1.766141   0.000000
     8  H    1.764145   1.764276   0.000000
     9  C    2.839419   2.832859   3.503626   0.000000
    10  C    2.959044   3.528104   4.193458   1.400573   0.000000
    11  C    4.230215   4.633337   5.526341   2.428890   1.392217
    12  C    5.145850   5.118533   6.196878   2.812494   2.415407
    13  C    5.083792   4.673937   5.762094   2.432221   2.781166
    14  C    4.084125   3.581471   4.496896   1.397836   2.400984
    15  H    2.526039   3.620897   3.977317   2.152789   1.082763
    16  H    4.748461   5.389274   6.224465   3.408396   2.149030
    17  H    6.148680   6.118409   7.259612   3.897034   3.398838
    18  H    6.057568   5.449236   6.592386   3.411700   3.865842
    19  H    4.521895   3.700461   4.520529   2.147331   3.385243
                   11         12         13         14         15
    11  C    0.000000
    12  C    1.393159   0.000000
    13  C    2.405655   1.390663   0.000000
    14  C    2.774865   2.411679   1.394520   0.000000
    15  H    2.143593   3.392244   3.863788   3.385680   0.000000
    16  H    1.084575   2.149958   3.388957   3.859410   2.465391
    17  H    2.153828   1.084540   2.151025   3.396162   4.287268
    18  H    3.390077   2.148774   1.084687   2.153333   4.948449
    19  H    3.859664   3.392041   2.148790   1.084822   4.284414
                   16         17         18         19
    16  H    0.000000
    17  H    2.479536   0.000000
    18  H    4.286733   2.477728   0.000000
    19  H    4.944197   4.288891   2.474245   0.000000
 Stoichiometry    C8H10O
 Framework group  C1[X(C8H10O)]
 Deg. of freedom    51
 Full point group                 C1      NOp   1
 Largest Abelian subgroup         C1      NOp   1
 Largest concise Abelian subgroup C1      NOp   1
                         Standard orientation:                         
 ---------------------------------------------------------------------
 Center     Atomic      Atomic             Coordinates (Angstroms)
 Number     Number       Type             X           Y           Z
 ---------------------------------------------------------------------
      1          6           0       -1.643688    0.404316   -0.063433
      2          1           0       -1.811930    1.489757   -0.134826
      3          8           0       -2.137284   -0.223885   -1.250984
      4          1           0       -3.081674   -0.059052   -1.314232
      5          6           0       -2.381467   -0.097391    1.180852
      6          1           0       -2.254993   -1.173634    1.301732
      7          1           0       -2.015455    0.388664    2.089830
      8          1           0       -3.456766    0.103989    1.112972
      9          6           0       -0.145046    0.183777   -0.027877
     10          6           0        0.400277   -1.106021   -0.002458
     11          6           0        1.778769   -1.297662    0.033624
     12          6           0        2.639820   -0.202520    0.045742
     13          6           0        2.113880    1.084455    0.013739
     14          6           0        0.732687    1.271677   -0.030297
     15          1           0       -0.257087   -1.966093   -0.025390
     16          1           0        2.183933   -2.303584    0.049925
     17          1           0        3.713602   -0.352268    0.073931
     18          1           0        2.778639    1.941564    0.016346
     19          1           0        0.328611    2.277943   -0.061771
 ---------------------------------------------------------------------
 Rotational constants (GHZ):      3.4809669      1.0776506      0.9860101
 Standard basis: 6-311G(d,p) (5D, 7F)
 There are   222 symmetry adapted basis functions of A   symmetry.
 Integral buffers will be    131072 words long.
 Raffenetti 2 integral format.
 Two-electron integral symmetry is turned on.
   222 basis functions,   368 primitive gaussians,   231 cartesian basis functions
    33 alpha electrons       33 beta electrons
       nuclear repulsion energy       423.5344707707 Hartrees.
 NAtoms=   19 NActive=   19 NUniq=   19 SFac= 1.00D+00 NAtFMM=   50 NAOKFM=F Big=F
 One-electron integrals computed using PRISM.
 NBasis=   222 RedAO= T  NBF=   222
 NBsUse=   222 1.00D-06 NBFU=   222
 Initial guess read from the read-write file.
 B after Tr=     0.000000    0.000000    0.000000
         Rot=    1.000000    0.000000    0.000000    0.000000 Ang=   0.00 deg.
 Initial guess orbital symmetries:
       Occupied  (A) (A) (A) (A) (A) (A) (A) (A) (A) (A) (A) (A)
                 (A) (A) (A) (A) (A) (A) (A) (A) (A) (A) (A) (A)
                 (A) (A) (A) (A) (A) (A) (A) (A) (A)
       Virtual   (A) (A) (A) (A) (A) (A) (A) (A) (A) (A) (A) (A)
                 (A) (A) (A) (A) (A) (A) (A) (A) (A) (A) (A) (A)
                 (A) (A) (A) (A) (A) (A) (A) (A) (A) (A) (A) (A)
                 (A) (A) (A) (A) (A) (A) (A) (A) (A) (A) (A) (A)
                 (A) (A) (A) (A) (A) (A) (A) (A) (A) (A) (A) (A)
                 (A) (A) (A) (A) (A) (A) (A) (A) (A) (A) (A) (A)
                 (A) (A) (A) (A) (A) (A) (A) (A) (A) (A) (A) (A)
                 (A) (A) (A) (A) (A) (A) (A) (A) (A) (A) (A) (A)
                 (A) (A) (A) (A) (A) (A) (A) (A) (A) (A) (A) (A)
                 (A) (A) (A) (A) (A) (A) (A) (A) (A) (A) (A) (A)
                 (A) (A) (A) (A) (A) (A) (A) (A) (A) (A) (A) (A)
                 (A) (A) (A) (A) (A) (A) (A) (A) (A) (A) (A) (A)
                 (A) (A) (A) (A) (A) (A) (A) (A) (A) (A) (A) (A)
                 (A) (A) (A) (A) (A) (A) (A) (A) (A) (A) (A) (A)
                 (A) (A) (A) (A) (A) (A) (A) (A) (A) (A) (A) (A)
                 (A) (A) (A) (A) (A) (A) (A) (A) (A)
 Harris functional with IExCor=  402 diagonalized for initial guess.
 ExpMin= 1.03D-01 ExpMax= 8.59D+03 ExpMxC= 1.30D+03 IAcc=1 IRadAn=         1 AccDes= 0.00D+00
 HarFok:  IExCor=  402 AccDes= 0.00D+00 IRadAn=         1 IDoV= 1
 ScaDFX=  1.000000  1.000000  1.000000  1.000000
 FoFCou: FMM=F IPFlag=           0 FMFlag=      100000 FMFlg1=           0
         NFxFlg=           0 DoJE=T BraDBF=F KetDBF=T FulRan=T
         Omega=  0.000000  0.000000  1.000000  0.000000  0.000000 ICntrl=     500 IOpCl=  0
         NMat0=    1 NMatS0=    1 NMatT0=    0 NMatD0=    1 NMtDS0=    0 NMtDT0=    0
         I1Cent=           4 NGrid=           0.
 Petite list used in FoFCou.
 Requested convergence on RMS density matrix=1.00D-08 within 128 cycles.
 Requested convergence on MAX density matrix=1.00D-06.
 Requested convergence on             energy=1.00D-06.
 No special actions if energy rises.
 Keep R1 ints in memory in canonical form, NReq=365612450.
 Integral accuracy reduced to 1.0D-05 until final iterations.
 Initial convergence to 1.0D-05 achieved.  Increase integral accuracy.
 SCF Done:  E(RB3LYP) =  -386.193639686     A.U. after   14 cycles
             Convg  =    0.8585D-08             -V/T =  2.0041
 Calling FoFJK, ICntrl=      2127 FMM=F ISym2X=0 I1Cent= 0 IOpClX= 0 NMat=1 NMatS=1 NMatT=0.
 ***** Axes restored to original set *****
 -------------------------------------------------------------------
 Center     Atomic                   Forces (Hartrees/Bohr)
 Number     Number              X              Y              Z
 -------------------------------------------------------------------
      1        6           0.001404763    0.000724884    0.006705208
      2        1          -0.000142370   -0.000650331   -0.000448440
      3        8           0.000488065   -0.002324072   -0.003901983
      4        1          -0.000563853    0.002189725    0.000747475
      5        6          -0.002120900    0.001320385   -0.001922057
      6        1           0.000262311   -0.000415770   -0.001853451
      7        1           0.000357238   -0.001283242    0.000517485
      8        1           0.000980486   -0.001524272    0.000736035
      9        6          -0.002612077   -0.002512984   -0.001865661
     10        6           0.000440847    0.000607178    0.000351216
     11        6           0.000653199    0.000939847   -0.000203669
     12        6          -0.000394273   -0.000816395   -0.000129328
     13        6           0.000368748    0.000312928    0.000568498
     14        6          -0.000547103    0.001890017    0.000099165
     15        1           0.000815668    0.000768426   -0.000167980
     16        1           0.000194482    0.000350923   -0.000011112
     17        1          -0.000000072    0.000170005   -0.000036654
     18        1           0.000327602    0.000403327    0.000277327
     19        1           0.000087236   -0.000150578    0.000537927
 -------------------------------------------------------------------
 Cartesian Forces:  Max     0.006705208 RMS     0.001452140

 GradGradGradGradGradGradGradGradGradGradGradGradGradGradGradGradGradGrad
 Berny optimization.
 Using GEDIIS/GDIIS optimizer.
 Internal  Forces:  Max     0.003069458 RMS     0.000999025
 Search for a local minimum.
 Step number   2 out of a maximum of  102
 All quantities printed in internal units (Hartrees-Bohrs-Radians)
 Mixed Optimization -- En-DIIS/RFO-DIIS
 Update second derivatives using D2CorX and points    1    2
 DE= -1.07D-02 DEPred=-1.32D-02 R= 8.07D-01
 SS=  1.41D+00  RLast= 2.98D-01 DXNew= 5.0454D-01 8.9495D-01
 Trust test= 8.07D-01 RLast= 2.98D-01 DXMaxT set to 5.05D-01
 ITU=  1  0
 Use linear search instead of GDIIS.
     Eigenvalues ---    0.01427   0.01434   0.01691   0.01818   0.02089
     Eigenvalues ---    0.02089   0.02089   0.02089   0.02089   0.02089
     Eigenvalues ---    0.02089   0.02097   0.05578   0.06018   0.06157
     Eigenvalues ---    0.06220   0.08619   0.15909   0.15998   0.16000
     Eigenvalues ---    0.16000   0.16000   0.16000   0.16000   0.16000
     Eigenvalues ---    0.16362   0.18578   0.20672   0.21999   0.22005
     Eigenvalues ---    0.23841   0.25048   0.34801   0.34928   0.34928
     Eigenvalues ---    0.34928   0.34928   0.34928   0.34929   0.34929
     Eigenvalues ---    0.35006   0.38215   0.38814   0.41350   0.42342
     Eigenvalues ---    0.45221   0.45620   0.45620   0.45621   0.45667
     Eigenvalues ---    0.57524
 RFO step:  Lambda=-5.94115159D-04 EMin= 1.42728783D-02
 Quartic linear search produced a step of -0.05958.
 Iteration  1 RMS(Cart)=  0.02755562 RMS(Int)=  0.00029071
 Iteration  2 RMS(Cart)=  0.00044488 RMS(Int)=  0.00004717
 Iteration  3 RMS(Cart)=  0.00000008 RMS(Int)=  0.00004717
 Variable       Old X    -DE/DX   Delta X   Delta X   Delta X     New X
                                 (Linear)    (Quad)   (Total)
    R1        2.08006  -0.00042  -0.00132   0.00059  -0.00073   2.07933
    R2        2.70472   0.00099  -0.00352   0.00672   0.00320   2.70792
    R3        2.89336  -0.00072  -0.00913   0.01025   0.00112   2.89448
    R4        2.86331  -0.00112  -0.00734   0.00691  -0.00043   2.86288
    R5        1.81556   0.00173  -0.00121   0.00444   0.00323   1.81878
    R6        2.06050   0.00180  -0.00015   0.00503   0.00488   2.06538
    R7        2.06703  -0.00021  -0.00054   0.00014  -0.00041   2.06663
    R8        2.07132  -0.00046  -0.00080  -0.00020  -0.00100   2.07033
    R9        2.64670  -0.00164  -0.00006  -0.00350  -0.00356   2.64314
   R10        2.64153  -0.00158   0.00024  -0.00378  -0.00353   2.63800
   R11        2.63091  -0.00105   0.00088  -0.00335  -0.00247   2.62844
   R12        2.04613   0.00092   0.00070   0.00155   0.00225   2.04838
   R13        2.63269   0.00132   0.00077   0.00188   0.00265   2.63534
   R14        2.04955  -0.00007   0.00050  -0.00084  -0.00034   2.04921
   R15        2.62797   0.00129   0.00105   0.00146   0.00251   2.63049
   R16        2.04948  -0.00013   0.00050  -0.00100  -0.00050   2.04898
   R17        2.63526  -0.00076   0.00062  -0.00237  -0.00175   2.63351
   R18        2.04976  -0.00020   0.00049  -0.00117  -0.00069   2.04907
   R19        2.05002   0.00051   0.00047   0.00076   0.00123   2.05124
    A1        1.90317   0.00058   0.00044   0.01636   0.01688   1.92005
    A2        1.87778   0.00130   0.00196   0.01010   0.01209   1.88987
    A3        1.87154   0.00083   0.00233   0.00688   0.00929   1.88083
    A4        1.94367  -0.00060  -0.00197  -0.00844  -0.01067   1.93300
    A5        1.87201   0.00112   0.00230  -0.00666  -0.00455   1.86746
    A6        1.99307  -0.00307  -0.00491  -0.01612  -0.02120   1.97187
    A7        1.89474  -0.00269   0.00095  -0.01691  -0.01597   1.87878
    A8        1.93653  -0.00012  -0.00154   0.00219   0.00068   1.93721
    A9        1.94818  -0.00145  -0.00224  -0.00611  -0.00835   1.93983
   A10        1.94141  -0.00230  -0.00183  -0.01202  -0.01387   1.92754
   A11        1.88353   0.00104   0.00161   0.00551   0.00716   1.89070
   A12        1.87759   0.00134   0.00197   0.00600   0.00799   1.88558
   A13        1.87349   0.00172   0.00221   0.00541   0.00757   1.88106
   A14        2.11714  -0.00290  -0.00136  -0.00886  -0.01022   2.10692
   A15        2.10336   0.00032  -0.00053   0.00219   0.00165   2.10501
   A16        2.06265   0.00258   0.00189   0.00669   0.00859   2.07124
   A17        2.10918  -0.00083  -0.00088  -0.00270  -0.00358   2.10560
   A18        2.08833  -0.00018   0.00036  -0.00209  -0.00174   2.08659
   A19        2.08557   0.00101   0.00053   0.00469   0.00520   2.09078
   A20        2.09900  -0.00038  -0.00027  -0.00067  -0.00095   2.09805
   A21        2.09202  -0.00021   0.00014  -0.00202  -0.00188   2.09014
   A22        2.09216   0.00059   0.00013   0.00269   0.00283   2.09498
   A23        2.08694  -0.00004   0.00044   0.00039   0.00083   2.08777
   A24        2.09857  -0.00006  -0.00025  -0.00062  -0.00086   2.09771
   A25        2.09766   0.00010  -0.00019   0.00023   0.00004   2.09769
   A26        2.09388  -0.00014   0.00003   0.00008   0.00011   2.09398
   A27        2.09375   0.00064   0.00004   0.00320   0.00324   2.09699
   A28        2.09554  -0.00049  -0.00007  -0.00328  -0.00334   2.09220
   A29        2.11458  -0.00119  -0.00120  -0.00370  -0.00491   2.10967
   A30        2.08068   0.00079   0.00082   0.00273   0.00354   2.08422
   A31        2.08791   0.00041   0.00039   0.00101   0.00139   2.08929
    D1       -1.07340  -0.00032   0.00156  -0.02307  -0.02150  -1.09490
    D2        0.99610   0.00129   0.00304  -0.00537  -0.00237   0.99374
    D3       -3.09468  -0.00218  -0.00280  -0.03598  -0.03874  -3.13342
    D4        3.13628   0.00029   0.00032   0.00262   0.00296   3.13923
    D5       -1.04535   0.00055  -0.00011   0.00698   0.00686  -1.03849
    D6        1.04678   0.00020   0.00002   0.00155   0.00162   1.04839
    D7        1.05161  -0.00089  -0.00026  -0.01879  -0.01903   1.03258
    D8       -3.13002  -0.00063  -0.00069  -0.01443  -0.01512   3.13805
    D9       -1.03789  -0.00098  -0.00055  -0.01986  -0.02037  -1.05826
   D10       -1.07191   0.00035   0.00147   0.00837   0.00981  -1.06210
   D11        1.02966   0.00061   0.00105   0.01273   0.01371   1.04337
   D12        3.12178   0.00026   0.00118   0.00731   0.00847   3.13025
   D13       -3.08788   0.00010  -0.00320   0.02968   0.02651  -3.06137
   D14        0.04484   0.00018  -0.00267   0.03303   0.03039   0.07523
   D15       -1.04574   0.00176  -0.00009   0.04882   0.04863  -0.99711
   D16        2.08698   0.00183   0.00044   0.05218   0.05251   2.13949
   D17        1.11677  -0.00024  -0.00414   0.02206   0.01798   1.13475
   D18       -2.03370  -0.00017  -0.00362   0.02541   0.02186  -2.01184
   D19       -3.13867  -0.00002  -0.00017  -0.00089  -0.00107  -3.13974
   D20        0.01828   0.00016  -0.00109   0.00726   0.00615   0.02444
   D21        0.01159  -0.00008  -0.00069  -0.00415  -0.00484   0.00675
   D22       -3.11464   0.00010  -0.00161   0.00400   0.00238  -3.11226
   D23        3.13190   0.00009   0.00058   0.00313   0.00369   3.13559
   D24       -0.00402  -0.00010   0.00024  -0.00495  -0.00473  -0.00874
   D25       -0.01829   0.00013   0.00109   0.00631   0.00740  -0.01089
   D26        3.12898  -0.00006   0.00075  -0.00178  -0.00102   3.12796
   D27        0.00061   0.00003  -0.00004   0.00116   0.00112   0.00173
   D28       -3.13838   0.00006  -0.00019   0.00242   0.00223  -3.13615
   D29        3.12686  -0.00016   0.00088  -0.00704  -0.00618   3.12068
   D30       -0.01213  -0.00013   0.00072  -0.00578  -0.00507  -0.01720
   D31       -0.00647   0.00000   0.00039  -0.00012   0.00027  -0.00620
   D32        3.14151  -0.00001   0.00000  -0.00029  -0.00028   3.14123
   D33        3.13252  -0.00003   0.00054  -0.00138  -0.00086   3.13167
   D34       -0.00269  -0.00004   0.00016  -0.00156  -0.00140  -0.00409
   D35       -0.00012   0.00004   0.00001   0.00221   0.00222   0.00210
   D36       -3.13457   0.00004  -0.00042   0.00209   0.00168  -3.13289
   D37        3.13509   0.00005   0.00039   0.00238   0.00277   3.13786
   D38        0.00064   0.00005  -0.00004   0.00226   0.00222   0.00287
   D39        0.01277  -0.00013  -0.00076  -0.00547  -0.00622   0.00655
   D40       -3.13453   0.00006  -0.00042   0.00266   0.00223  -3.13229
   D41       -3.13598  -0.00013  -0.00033  -0.00532  -0.00565   3.14156
   D42       -0.00009   0.00006   0.00001   0.00280   0.00280   0.00272
         Item               Value     Threshold  Converged?
 Maximum Force            0.003069     0.000450     NO 
 RMS     Force            0.000999     0.000300     NO 
 Maximum Displacement     0.116460     0.001800     NO 
 RMS     Displacement     0.027600     0.001200     NO 
 Predicted change in Energy=-3.394019D-04
 GradGradGradGradGradGradGradGradGradGradGradGradGradGradGradGradGradGrad

                          Input orientation:                          
 ---------------------------------------------------------------------
 Center     Atomic      Atomic             Coordinates (Angstroms)
 Number     Number       Type             X           Y           Z
 ---------------------------------------------------------------------
      1          6           0        0.013520    0.020959   -0.011707
      2          1           0        0.043272   -0.025152    1.087257
      3          8           0        1.344944   -0.015677   -0.540262
      4          1           0        1.805864    0.768017   -0.224508
      5          6           0       -0.696773    1.315363   -0.419241
      6          1           0       -0.748974    1.407580   -1.507044
      7          1           0       -1.715165    1.348387   -0.022033
      8          1           0       -0.157706    2.186306   -0.030475
      9          6           0       -0.694215   -1.223388   -0.507539
     10          6           0       -0.798237   -1.488405   -1.876947
     11          6           0       -1.450274   -2.630226   -2.330513
     12          6           0       -2.011518   -3.525874   -1.420774
     13          6           0       -1.909073   -3.274545   -0.055496
     14          6           0       -1.250641   -2.131772    0.394655
     15          1           0       -0.347523   -0.806806   -2.589156
     16          1           0       -1.518101   -2.824148   -3.395271
     17          1           0       -2.520032   -4.415701   -1.774711
     18          1           0       -2.335273   -3.969313    0.659631
     19          1           0       -1.165758   -1.944517    1.460478
 ---------------------------------------------------------------------
                    Distance matrix (angstroms):
                    1          2          3          4          5
     1  C    0.000000
     2  H    1.100333   0.000000
     3  O    1.432970   2.084048   0.000000
     4  H    1.953428   2.335932   0.962458   0.000000
     5  C    1.531693   2.148065   2.440271   2.569183   0.000000
     6  H    2.177188   3.067698   2.710133   2.929358   1.092952
     7  H    2.179569   2.491833   3.390206   3.574279   1.093612
     8  H    2.172187   2.486013   2.714143   2.429980   1.095569
     9  C    1.514971   2.126742   2.370191   3.208769   2.540287
    10  C    2.533032   3.411123   2.923847   3.821432   3.161695
    11  C    3.814228   4.549533   4.225412   5.156137   4.448415
    12  C    4.320448   4.771524   4.935850   5.868642   5.115584
    13  C    3.815576   3.959304   4.630750   5.492871   4.761222
    14  C    2.529324   2.567442   3.476922   4.258446   3.584959
    15  H    2.731078   3.778851   2.772778   3.564927   3.055177
    16  H    4.678568   5.510474   4.922968   5.831478   5.163999
    17  H    5.404722   5.834237   5.985158   6.927297   6.164955
    18  H    4.678653   4.625662   5.533080   6.353977   5.637060
    19  H    2.724173   2.298915   3.745265   4.362059   3.792111
                    6          7          8          9         10
     6  H    0.000000
     7  H    1.772650   0.000000
     8  H    1.770951   1.768575   0.000000
     9  C    2.814960   2.809284   3.484457   0.000000
    10  C    2.919928   3.511247   4.162119   1.398690   0.000000
    11  C    4.180167   4.607451   5.491802   2.423644   1.390910
    12  C    5.093174   5.079637   6.164296   2.805481   2.414835
    13  C    5.037372   4.627117   5.734876   2.426411   2.782434
    14  C    4.049091   3.535663   4.474487   1.395968   2.403907
    15  H    2.497125   3.620141   3.942283   2.151014   1.083956
    16  H    4.697284   5.369135   6.186855   3.402971   2.146560
    17  H    6.092528   6.078191   7.225610   3.889756   3.397660
    18  H    6.010142   5.396956   6.565797   3.405211   3.866732
    19  H    4.496270   3.652793   4.505863   2.148365   3.388439
                   11         12         13         14         15
    11  C    0.000000
    12  C    1.394563   0.000000
    13  C    2.408599   1.391993   0.000000
    14  C    2.777562   2.412102   1.393592   0.000000
    15  H    2.146582   3.395191   3.866213   3.387371   0.000000
    16  H    1.084396   2.152793   3.392612   3.861924   2.467741
    17  H    2.154349   1.084275   2.152025   3.396150   4.290366
    18  H    3.393721   2.151636   1.084322   2.150162   4.950476
    19  H    3.862999   3.393760   2.149341   1.085471   4.285257
                   16         17         18         19
    16  H    0.000000
    17  H    2.482563   0.000000
    18  H    4.292015   2.481817   0.000000
    19  H    4.947342   4.290368   2.471623   0.000000
 Stoichiometry    C8H10O
 Framework group  C1[X(C8H10O)]
 Deg. of freedom    51
 Full point group                 C1      NOp   1
 Largest Abelian subgroup         C1      NOp   1
 Largest concise Abelian subgroup C1      NOp   1
                         Standard orientation:                         
 ---------------------------------------------------------------------
 Center     Atomic      Atomic             Coordinates (Angstroms)
 Number     Number       Type             X           Y           Z
 ---------------------------------------------------------------------
      1          6           0       -1.641488    0.418186   -0.088925
      2          1           0       -1.815926    1.496828   -0.218681
      3          8           0       -2.136298   -0.298915   -1.226613
      4          1           0       -3.087249   -0.157001   -1.269948
      5          6           0       -2.354289   -0.033454    1.189362
      6          1           0       -2.211257   -1.103444    1.360265
      7          1           0       -1.978849    0.507489    2.062524
      8          1           0       -3.430565    0.157278    1.115039
      9          6           0       -0.143860    0.194584   -0.041516
     10          6           0        0.383703   -1.099260    0.021554
     11          6           0        1.758903   -1.302654    0.067228
     12          6           0        2.630138   -0.213827    0.052632
     13          6           0        2.115903    1.077907   -0.015419
     14          6           0        0.737511    1.276857   -0.065944
     15          1           0       -0.286731   -1.950973    0.013591
     16          1           0        2.152498   -2.312158    0.110810
     17          1           0        3.702101   -0.372736    0.088591
     18          1           0        2.785727    1.930369   -0.035419
     19          1           0        0.341509    2.285627   -0.127695
 ---------------------------------------------------------------------
 Rotational constants (GHZ):      3.4775421      1.0877299      0.9918785
 Standard basis: 6-311G(d,p) (5D, 7F)
 There are   222 symmetry adapted basis functions of A   symmetry.
 Integral buffers will be    131072 words long.
 Raffenetti 2 integral format.
 Two-electron integral symmetry is turned on.
   222 basis functions,   368 primitive gaussians,   231 cartesian basis functions
    33 alpha electrons       33 beta electrons
       nuclear repulsion energy       424.2072098478 Hartrees.
 NAtoms=   19 NActive=   19 NUniq=   19 SFac= 1.00D+00 NAtFMM=   50 NAOKFM=F Big=F
 One-electron integrals computed using PRISM.
 NBasis=   222 RedAO= T  NBF=   222
 NBsUse=   222 1.00D-06 NBFU=   222
 Initial guess read from the read-write file.
 B after Tr=     0.000000    0.000000    0.000000
         Rot=    1.000000    0.000000    0.000000    0.000000 Ang=   0.00 deg.
 Initial guess orbital symmetries:
       Occupied  (A) (A) (A) (A) (A) (A) (A) (A) (A) (A) (A) (A)
                 (A) (A) (A) (A) (A) (A) (A) (A) (A) (A) (A) (A)
                 (A) (A) (A) (A) (A) (A) (A) (A) (A)
       Virtual   (A) (A) (A) (A) (A) (A) (A) (A) (A) (A) (A) (A)
                 (A) (A) (A) (A) (A) (A) (A) (A) (A) (A) (A) (A)
                 (A) (A) (A) (A) (A) (A) (A) (A) (A) (A) (A) (A)
                 (A) (A) (A) (A) (A) (A) (A) (A) (A) (A) (A) (A)
                 (A) (A) (A) (A) (A) (A) (A) (A) (A) (A) (A) (A)
                 (A) (A) (A) (A) (A) (A) (A) (A) (A) (A) (A) (A)
                 (A) (A) (A) (A) (A) (A) (A) (A) (A) (A) (A) (A)
                 (A) (A) (A) (A) (A) (A) (A) (A) (A) (A) (A) (A)
                 (A) (A) (A) (A) (A) (A) (A) (A) (A) (A) (A) (A)
                 (A) (A) (A) (A) (A) (A) (A) (A) (A) (A) (A) (A)
                 (A) (A) (A) (A) (A) (A) (A) (A) (A) (A) (A) (A)
                 (A) (A) (A) (A) (A) (A) (A) (A) (A) (A) (A) (A)
                 (A) (A) (A) (A) (A) (A) (A) (A) (A) (A) (A) (A)
                 (A) (A) (A) (A) (A) (A) (A) (A) (A) (A) (A) (A)
                 (A) (A) (A) (A) (A) (A) (A) (A) (A) (A) (A) (A)
                 (A) (A) (A) (A) (A) (A) (A) (A) (A)
 Harris functional with IExCor=  402 diagonalized for initial guess.
 ExpMin= 1.03D-01 ExpMax= 8.59D+03 ExpMxC= 1.30D+03 IAcc=1 IRadAn=         1 AccDes= 0.00D+00
 HarFok:  IExCor=  402 AccDes= 0.00D+00 IRadAn=         1 IDoV= 1
 ScaDFX=  1.000000  1.000000  1.000000  1.000000
 FoFCou: FMM=F IPFlag=           0 FMFlag=      100000 FMFlg1=           0
         NFxFlg=           0 DoJE=T BraDBF=F KetDBF=T FulRan=T
         Omega=  0.000000  0.000000  1.000000  0.000000  0.000000 ICntrl=     500 IOpCl=  0
         NMat0=    1 NMatS0=    1 NMatT0=    0 NMatD0=    1 NMtDS0=    0 NMtDT0=    0
         I1Cent=           4 NGrid=           0.
 Petite list used in FoFCou.
 Requested convergence on RMS density matrix=1.00D-08 within 128 cycles.
 Requested convergence on MAX density matrix=1.00D-06.
 Requested convergence on             energy=1.00D-06.
 No special actions if energy rises.
 Keep R1 ints in memory in canonical form, NReq=365612450.
 Integral accuracy reduced to 1.0D-05 until final iterations.
 Initial convergence to 1.0D-05 achieved.  Increase integral accuracy.
 SCF Done:  E(RB3LYP) =  -386.194067757     A.U. after   11 cycles
             Convg  =    0.4808D-08             -V/T =  2.0041
 Calling FoFJK, ICntrl=      2127 FMM=F ISym2X=0 I1Cent= 0 IOpClX= 0 NMat=1 NMatS=1 NMatT=0.
 ***** Axes restored to original set *****
 -------------------------------------------------------------------
 Center     Atomic                   Forces (Hartrees/Bohr)
 Number     Number              X              Y              Z
 -------------------------------------------------------------------
      1        6          -0.000461593   -0.000278566   -0.000264805
      2        1           0.000886144   -0.000318709   -0.000715371
      3        8           0.000568855   -0.000032917    0.000369416
      4        1           0.000023660    0.000534180   -0.000405578
      5        6          -0.001092910    0.001035857    0.000117149
      6        1           0.000327291   -0.000620801    0.000358574
      7        1           0.000200909   -0.000171415    0.000098643
      8        1           0.000058946   -0.000038152    0.000155287
      9        6          -0.000929764   -0.000708336    0.000416585
     10        6           0.000869369    0.000222371   -0.000449232
     11        6          -0.000080601   -0.000051153    0.000116042
     12        6          -0.000107483   -0.000190451    0.000167386
     13        6          -0.000365905   -0.000216447   -0.000419880
     14        6          -0.000168704    0.001029452    0.000117612
     15        1           0.000289111    0.000017622    0.000327672
     16        1          -0.000059276   -0.000041345   -0.000056063
     17        1           0.000008074   -0.000034164   -0.000021695
     18        1          -0.000019261   -0.000056788    0.000037277
     19        1           0.000053138   -0.000080236    0.000050980
 -------------------------------------------------------------------
 Cartesian Forces:  Max     0.001092910 RMS     0.000418942

 GradGradGradGradGradGradGradGradGradGradGradGradGradGradGradGradGradGrad
 Berny optimization.
 Using GEDIIS/GDIIS optimizer.
 Internal  Forces:  Max     0.000884472 RMS     0.000309232
 Search for a local minimum.
 Step number   3 out of a maximum of  102
 All quantities printed in internal units (Hartrees-Bohrs-Radians)
 Mixed Optimization -- En-DIIS/RFO-DIIS
 Swaping is turned off.
 Update second derivatives using D2CorX and points    1    2    3
 DE= -4.28D-04 DEPred=-3.39D-04 R= 1.26D+00
 SS=  1.41D+00  RLast= 1.16D-01 DXNew= 8.4853D-01 3.4815D-01
 Trust test= 1.26D+00 RLast= 1.16D-01 DXMaxT set to 5.05D-01
 ITU=  1  1  0
     Eigenvalues ---    0.00951   0.01429   0.01661   0.01818   0.02086
     Eigenvalues ---    0.02089   0.02089   0.02089   0.02089   0.02089
     Eigenvalues ---    0.02091   0.02110   0.05705   0.06210   0.06295
     Eigenvalues ---    0.06975   0.08455   0.15454   0.15997   0.16000
[...]
 -0.02289269,0.12136042,0.00011582,-0.00732908,-0.00450435,0.00078399,-
 0.00009404,-0.00061936,-0.19461683,-0.40054168,-0.11039863,0.19191661,
 0.40465744,0.01657430,0.02600302,0.00289149,0.00028165,0.00100010,-0.0
 0024223,-0.04817936,-0.14129610,-0.06091621,0.02861193,0.11455932,0.06
 044804,-0.10240773,0.03612109,-0.00738144,-0.00764189,0.01356601,-0.00
 142856,-0.03558707,0.02159794,0.01586027,0.00100871,0.00250658,0.00051
 777,0.52890210,0.05274821,-0.14329486,0.00314803,0.00576500,-0.0065911
 4,-0.00046612,-0.00485546,0.00555996,0.00115828,-0.00066801,0.00335011
 ,0.00073161,0.05525130,0.48878759,-0.00771760,0.00821136,-0.07741111,-
 0.01950984,0.02441597,0.00177533,0.02823141,-0.01936856,-0.00641255,-0
 .00190402,-0.00054038,0.00091843,-0.00291022,-0.00573263,0.57369106,-0
 .00835441,0.00583076,-0.01961410,-0.00176607,0.00345762,0.00068663,0.0
 0233017,-0.00205881,0.00059375,-0.00050960,0.00004630,-0.00056999,-0.0
 7844141,0.01600845,-0.08368738,0.08228297,0.00992188,-0.00784666,0.027
 36155,0.00380875,-0.00403010,-0.00058441,-0.00257767,0.00202675,-0.001
 19251,0.00010251,-0.00002562,-0.00025071,0.01652401,-0.05617490,0.0442
 9478,-0.02123473,0.06057185,0.00093149,0.00034703,-0.00080952,0.000533
 12,-0.00020136,0.00137572,-0.00069813,-0.00071669,0.00209080,-0.000087
 82,0.00018699,-0.00027955,-0.08470990,0.04628220,-0.26925099,0.0932121
 3,-0.05070455,0.29032556,-0.01278668,-0.00728530,0.01172679,0.00053967
 ,0.00002596,-0.00092346,-0.00412101,0.00436897,0.00120821,0.00119220,0
 .00046679,-0.00005516,-0.20337950,-0.03164959,0.12500948,0.01032917,0.
 00178732,-0.00731323,0.21999925,0.01619446,0.00712252,-0.01665782,-0.0
 0067271,0.00078255,0.00066405,0.00709149,-0.00372598,-0.00239479,-0.00
 005732,-0.00076061,-0.00005860,-0.03391794,-0.05456341,0.02849056,-0.0
 0487418,-0.00189429,0.00293169,0.03543175,0.05674259,-0.00102062,0.000
 31948,-0.00219019,0.00014324,-0.00052394,0.00024051,0.00094497,-0.0006
 6321,0.00193545,-0.00010889,0.00004324,-0.00037044,0.12487221,0.026660
 67,-0.14579956,0.02320588,0.00427788,-0.01646811,-0.13820177,-0.029521
 37,0.15522043,0.00814534,0.01845553,0.00813223,0.00103929,-0.00114444,
 0.00017753,0.00309575,0.00021031,-0.00152101,-0.00032832,-0.00066056,0
 .00005615,-0.11330889,-0.10258822,-0.04318284,-0.00626712,-0.00834545,
 -0.00239874,-0.01226029,-0.01948045,-0.00966955,0.12126011,-0.01581088
 ,-0.02256876,-0.00886977,-0.00005434,0.00096159,0.00052162,-0.00056153
 ,0.00277784,0.00121737,0.00143910,-0.00003420,-0.00091501,-0.10158433,
 -0.20574995,-0.06702418,0.00374720,0.00565116,0.00171866,-0.00216461,-
 0.00386744,-0.00119317,0.11110053,0.22665427,-0.00012167,0.00019994,-0
 .00071032,0.00080345,0.00015406,0.00014700,0.00012491,0.00038264,-0.00
 030123,0.00078518,-0.00069394,-0.00010272,-0.04404824,-0.06710856,-0.0
 7677841,-0.01458460,-0.02394189,-0.00816801,0.00930663,0.01648547,0.00
 706756,0.04763644,0.07480073,0.07740756,-0.09843444,-0.04030085,-0.012
 69105,-0.00383819,-0.01198634,-0.00652300,-0.02321360,-0.03105373,-0.0
 0260583,-0.00406834,-0.00032448,0.00279634,0.01392724,0.01037812,0.005
 66704,0.00009569,0.00040376,0.00013749,0.00012546,0.00020513,0.0002737
 2,-0.00245942,0.00461288,-0.00009398,0.36179482,-0.05036874,-0.1467347
 1,-0.02838028,0.00129246,0.00100713,-0.00079589,-0.01105207,-0.0093229
 5,0.00103864,-0.00059963,0.00034865,-0.00009389,-0.00679960,-0.0308091
 7,-0.01217413,-0.00129422,0.00201775,-0.00036234,-0.00094748,0.0008148
 7,0.00050654,0.00171377,-0.00284532,-0.00047039,0.20191352,0.47838804,
 -0.01870645,-0.03675877,-0.10644549,-0.01417547,-0.02646763,-0.0106725
 1,0.01571195,0.02347598,0.00791793,0.00483908,0.00191111,-0.00337944,0
 .00040091,-0.00467838,0.00008600,0.00051965,0.00112150,0.00094009,-0.0
 0076643,0.00005101,0.00014245,0.00040028,0.00009302,0.00126866,-0.1085
 8974,0.06422298,0.63991585,0.00389241,-0.00527032,-0.01634432,-0.00170
 939,-0.00248589,-0.00128562,0.00064102,-0.00137507,-0.00025156,0.00018
 765,0.00013780,-0.00054195,-0.00144664,-0.00009302,-0.00070502,0.00024
 860,-0.00006512,0.00019838,0.00021762,0.00000041,-0.00001659,0.0006009
 3,-0.00025696,0.00006469,-0.09178574,-0.01602503,0.04570485,0.38218448
 ,-0.00006715,-0.00698760,-0.02690649,-0.00185770,-0.00240990,-0.001183
 41,-0.00045729,-0.00065593,-0.00091222,0.00041921,0.00030831,-0.000549
 92,-0.00206054,-0.00025373,-0.00089174,0.00003628,0.00026303,0.0002399
 7,0.00028959,-0.00011723,-0.00020406,0.00066069,-0.00051997,-0.0000525
 2,-0.03035710,-0.12579993,-0.04021547,0.26478653,0.50538840,-0.0068763
 9,-0.01047843,-0.00429485,0.00021457,0.00060737,0.00040669,0.00101327,
 -0.00112986,-0.00341201,0.00056418,0.00016277,-0.00074997,-0.00038781,
 0.00175322,-0.00029519,-0.00017322,-0.00013123,0.00012359,0.00049999,-
 0.00017556,-0.00034159,0.00050285,0.00058093,0.00008943,0.00913064,-0.
 08761286,-0.29124810,-0.13145594,0.05241389,0.64467330,0.00439899,-0.0
 0259039,0.00248899,0.00076771,0.00072286,0.00071367,-0.00032390,-0.000
 19302,-0.00030885,-0.00004301,0.00001183,-0.00021691,-0.00053706,-0.00
 126659,-0.00023295,0.00008746,-0.00035066,0.00002534,-0.00029614,0.000
 21804,0.00014112,0.00003827,-0.00046409,0.00023884,0.02227684,0.001869
 52,-0.04828302,-0.14321512,-0.10597360,0.00115830,0.34976558,-0.002174
 73,0.00310027,-0.00298532,-0.00015406,-0.00098244,0.00027063,-0.000358
 17,0.00013942,0.00006316,-0.00010298,0.00024335,0.00011110,0.00085722,
 0.00030565,0.00069495,0.00021116,-0.00038976,0.00006883,-0.00035137,0.
 00017031,0.00016008,-0.00037838,0.00004267,0.00028416,0.01241655,-0.00
 514091,-0.06788860,-0.12224578,-0.23783575,-0.03268997,0.23453477,0.48
 582295,0.00330605,0.00005888,-0.00468823,-0.00046199,-0.00052833,-0.00
 025138,0.00065507,0.00106097,0.00143200,-0.00006638,0.00003461,0.00034
 032,-0.00028789,-0.00022721,-0.00037168,0.00006942,-0.00012783,0.00005
 623,-0.00003485,0.00001313,0.00003117,0.00017801,-0.00013634,0.0001047
 9,-0.02001266,-0.03176331,-0.00340488,-0.03742204,-0.08320275,-0.14234
 145,-0.10960685,0.09817822,0.69349320,-0.00056957,0.00053651,0.0004907
 1,-0.00013843,-0.00009862,-0.00023051,-0.00000625,-0.00025714,-0.00017
 106,0.00002629,-0.00006772,-0.00005124,-0.00032159,0.00006705,-0.00015
 945,-0.00010090,0.00016341,0.00003363,0.00010486,-0.00004276,-0.000087
 80,0.00011973,-0.00003070,-0.00014153,-0.01380680,0.00071771,0.0234304
 6,-0.01851381,-0.03891639,-0.01002565,-0.16001571,-0.08076768,0.108790
 55,0.36623445,0.00075056,-0.00072170,-0.00003898,-0.00001832,-0.000042
 87,0.00006016,-0.00023338,-0.00022465,-0.00000631,0.00008218,-0.000005
 01,-0.00015466,-0.00073051,-0.00007409,-0.00010234,-0.00000338,0.00001
 376,0.00007112,0.00004472,0.00002095,-0.00007396,0.00013771,-0.0002079
 2,-0.00005574,0.00069457,-0.00221360,0.00800915,-0.02687896,-0.0238842
 5,0.00808447,-0.09730448,-0.15646932,0.08036913,0.27078133,0.53019452,
 0.00042113,-0.00142276,-0.00285353,0.00012312,-0.00043529,0.00074634,-
 0.00052428,0.00018524,0.00039756,-0.00007268,0.00022650,-0.00002773,-0
 .00021386,-0.00016759,0.00041885,0.00022635,-0.00036623,0.00009907,-0.
 00039097,0.00027836,0.00018014,-0.00017054,-0.00024129,0.00033259,0.02
 382898,0.00983013,-0.06051869,0.01845170,0.04497171,0.05711478,0.07121
 720,0.03004063,-0.20868820,-0.08852803,0.09572934,0.63049645,0.0023876
 6,-0.00218759,0.00469630,-0.00024589,0.00038488,0.00013724,0.00022362,
 -0.00037269,-0.00044832,-0.00009271,-0.00012035,-0.00001268,-0.0002625
 6,-0.00038624,-0.00033977,-0.00016862,0.00019047,-0.00009931,0.0003797
 1,-0.00032802,-0.00030044,0.00028650,-0.00008487,-0.00028618,-0.018883
 13,-0.02626770,0.01888933,-0.00915441,-0.00850047,-0.01382946,0.013554
 77,0.01460066,0.01786883,-0.08953767,-0.01718999,0.04415529,0.37013091
 ,-0.00303003,0.00562055,0.00403225,0.00000939,0.00022197,-0.00142751,-
 0.00014035,-0.00120218,-0.00092951,-0.00009203,-0.00025025,0.00019529,
 0.00062734,0.00035750,-0.00018251,-0.00018933,0.00026236,-0.00005730,0
 .00027096,-0.00031512,-0.00016052,0.00004402,0.00027806,-0.00024469,-0
 .03869203,-0.02558567,0.04587096,-0.00872472,-0.03117658,-0.03066179,0
 .02641161,0.04426246,0.00141292,-0.03309579,-0.12576934,-0.04414194,0.
 25967065,0.49807740,0.00280673,0.00110495,-0.00196578,0.00008405,0.000
 06374,-0.00011194,0.00130491,0.00128204,0.00028338,0.00050966,-0.00001
 325,-0.00023964,-0.00006937,-0.00041615,-0.00036616,-0.00021832,0.0002
 6697,0.00000179,0.00009457,-0.00004835,-0.00015813,0.00015757,-0.00002
 140,-0.00031777,-0.01001336,0.00837093,0.05722609,-0.01437192,-0.03128
 742,-0.03715198,0.04664027,0.03940291,-0.04418742,0.00642030,-0.094721
 27,-0.30583764,-0.12809138,0.05057662,0.65960440,-0.00835244,-0.012859
 33,0.00596740,0.00117106,0.00062587,0.00230612,-0.00158207,-0.00256303
 ,0.00033490,-0.00059495,-0.00022374,0.00064153,-0.00096397,0.00089174,
 0.00101753,0.00026132,-0.00063591,0.00028051,0.00003992,-0.00001443,-0
 .00025313,0.00037381,0.00005919,0.00030391,-0.15252443,-0.08787054,0.0
 6153909,0.01509735,0.02580398,0.04541900,-0.03223349,-0.02980299,0.008
 23670,0.02252176,-0.00130409,-0.04860640,-0.14269912,-0.10793916,-0.00
 043205,0.34348587,-0.01624456,-0.01526780,0.01419694,-0.00047088,0.000
 16006,0.00135190,-0.00261174,-0.00377462,-0.00076890,-0.00111474,0.000
 40847,0.00070325,-0.00096792,-0.00010921,0.00006808,0.00013463,-0.0003
 7772,0.00023732,-0.00046340,-0.00010645,0.00030261,-0.00011922,-0.0002
 4483,0.00034781,-0.07327059,-0.15063199,0.02731093,0.01449569,0.042819
 19,0.03684140,-0.02937290,-0.04099272,0.01153102,0.01064549,-0.0061739
 8,-0.06774346,-0.12421516,-0.23950797,-0.03437071,0.24036834,0.4926069
 9,-0.00365800,0.00006806,0.01190394,-0.00110366,-0.00095829,0.00035708
 ,-0.00297440,-0.00444548,-0.00048626,-0.00097276,-0.00056667,0.0006630
 1,-0.00062310,-0.00116777,-0.00019602,0.00022903,0.00017445,-0.0001556
 3,0.00034459,-0.00039161,0.00015701,-0.00004919,-0.00053385,-0.0001044
 7,0.10052840,0.07546282,-0.20238647,0.01820105,0.00201679,-0.04300758,
 0.00700026,0.01030403,-0.00428215,-0.01939021,-0.03015982,-0.00324234,
 -0.03869865,-0.08488882,-0.14173639,-0.09375461,0.10039646,0.68321548,
 -0.00233598,0.00105019,-0.00076067,-0.00028016,-0.00018355,0.00014809,
 -0.00147960,-0.00164503,-0.00211724,-0.00003806,0.00007054,0.00006887,
 0.00035242,0.00031882,0.00052782,-0.00007299,0.00020661,-0.00002149,-0
 .00003960,0.00003015,-0.00003481,-0.00012850,0.00013709,-0.00010267,0.
 00256504,-0.00127768,0.00207254,-0.14629618,-0.09053116,0.11309475,-0.
 00483948,-0.00588526,0.01027243,0.00358617,-0.00489233,-0.00044780,-0.
 00024660,0.00034840,-0.00056269,0.00427805,-0.00219785,0.00087059,0.14
 768698,0.00195210,-0.00136427,0.00009680,0.00001134,0.00044616,0.00043
 038,-0.00102405,-0.00170103,-0.00109924,-0.00003478,-0.00021873,0.0000
 5447,-0.00043430,-0.00040222,-0.00019971,0.00016985,-0.00011826,-0.000
 02038,-0.00006855,0.00007611,0.00009740,0.00013290,-0.00014020,0.00004
 253,0.00586775,0.00982686,-0.00537713,-0.09034001,-0.11804462,0.085047
 41,-0.01387038,-0.00761210,0.01700137,-0.00496224,-0.00066281,-0.00344
 165,0.00034066,-0.00054182,-0.00066630,-0.00249651,0.00190833,-0.00309
 219,0.10230519,0.11971247,0.00167827,0.00234233,-0.00118909,-0.0002689
 8,-0.00016373,0.00026006,-0.00051193,0.00003485,0.00070194,-0.00020962
 ,0.00016888,0.00093998,-0.00016943,-0.00003327,0.00010606,0.00013827,-
 0.00006523,0.00000876,-0.00013040,0.00010016,0.00011689,-0.00001524,-0
 .00007494,-0.00005336,0.01824371,0.01530486,-0.01502371,0.11076032,0.0
 8406677,-0.17175741,-0.00706952,-0.00612694,0.01004504,-0.00006644,-0.
 00307713,0.00092835,-0.00066525,-0.00066882,-0.00038056,0.00073424,-0.
 00382771,-0.00431766,-0.12217392,-0.08975251,0.17977847,0.00050022,0.0
 0011020,-0.00077122,-0.00008770,-0.00007646,-0.00009268,-0.00008703,0.
 00000143,0.00014849,0.00002826,-0.00000816,-0.00001140,-0.00008152,-0.
 00004088,0.00000867,0.00002667,-0.00000043,0.00000864,-0.00001357,-0.0
 0000027,-0.00000193,-0.00000146,-0.00006221,0.00003037,0.00277077,-0.0
 0594298,0.00010881,0.00482537,-0.00484813,-0.01588822,-0.04775592,-0.0
 0352920,0.02487615,0.00243764,0.00685054,0.01782020,0.00216795,-0.0050
 5713,0.00337356,-0.00100464,-0.00033900,-0.00003270,-0.00201481,0.0024
 9890,-0.00070716,0.04080174,0.00039133,0.00025718,-0.00114513,-0.00019
 994,-0.00033430,-0.00011215,-0.00004707,0.00004306,0.00018058,-0.00001
 621,0.00002176,-0.00001883,-0.00014820,-0.00002125,-0.00006348,0.00002
 071,-0.00001878,0.00002362,0.00001285,0.00000906,-0.00000088,0.0000511
 6,-0.00006534,-0.00000244,-0.00577194,-0.00130159,-0.00169455,0.002928
 20,-0.00383696,-0.02495364,-0.00344729,-0.07763555,-0.08411185,-0.0011
 6268,0.00845291,0.01580066,-0.00486050,0.00130048,0.00128368,-0.000228
 76,-0.00086724,0.00053574,0.00217667,-0.00073347,0.00113673,0.00758886
 ,0.07558630,0.00044558,0.00040344,-0.00034870,-0.00005982,-0.00012411,
 -0.00007613,-0.00016046,-0.00010564,0.00009340,0.00001980,-0.00000614,
 -0.00002488,-0.00011059,-0.00004921,-0.00003779,0.00000712,0.00000856,
 0.00001698,-0.00000354,0.00001364,-0.00000045,0.00001092,-0.00007490,-
 0.00000067,0.00003179,-0.00235133,0.00197922,0.00207407,-0.00105758,-0
 .00532574,0.02477038,-0.08391065,-0.30378039,-0.00041145,-0.00842784,-
 0.01487272,0.00392633,0.00203453,-0.00013284,-0.00009187,0.00045316,0.
 00063978,-0.00110807,0.00054618,0.00045219,-0.02832124,0.09201644,0.32
 186126,-0.00049232,0.00057441,-0.00002656,-0.00002086,-0.00003043,-0.0
 0016622,-0.00010431,-0.00008835,-0.00012768,0.00002040,0.00000288,-0.0
 0000299,0.00005917,0.00008388,0.00001560,-0.00000135,0.00001745,0.0000
 0599,-0.00000676,0.00000407,0.00001241,-0.00004125,0.00001557,0.000004
 29,-0.00050160,0.00044872,0.00042734,0.00279805,-0.00389220,0.00445448
 ,-0.00571523,-0.01438346,-0.00753211,-0.11681616,-0.12375753,-0.037780
 58,0.00403618,0.00267588,0.00165856,0.00485995,-0.00222493,0.00172418,
 -0.00018920,-0.00074843,-0.00034415,-0.00197391,0.00232086,-0.00077228
 ,0.11592710,0.00036128,-0.00032516,0.00010563,0.00001185,-0.00000095,0
 .00008156,-0.00006379,-0.00011442,0.00001966,0.00001233,-0.00000018,-0
 .00006080,-0.00004222,-0.00006700,-0.00002936,-0.00001241,0.00000517,0
 .00000649,0.00000731,0.00001174,-0.00001574,0.00002164,-0.00004779,-0.
 00000942,0.00061889,0.00023644,0.00043197,-0.00428594,0.00236137,0.001
 83861,-0.00630068,-0.00864570,-0.00689796,-0.12385991,-0.22921085,-0.0
 7016929,-0.00512983,-0.00444721,-0.00044277,-0.00196425,0.00333041,-0.
 00266906,-0.00032446,-0.00037943,-0.00040856,0.00209091,-0.00081505,0.
 00096565,0.13703332,0.23916381,-0.00009865,0.00021806,-0.00006021,0.00
 004284,0.00001747,0.00002569,-0.00009676,-0.00003557,0.00012153,-0.000
 00913,0.00000958,0.00004320,0.00004043,0.00003187,0.00000784,0.0000069
 4,-0.00001709,0.00001311,-0.00003784,0.00003265,0.00001958,-0.00002820
 ,-0.00000226,0.00000938,0.00039917,0.00036254,-0.00113713,0.00381146,0
 .00113604,-0.00176007,0.01068614,0.01736423,0.01023012,-0.03775124,-0.
 07010628,-0.08271264,-0.01655519,-0.02482059,-0.00404370,0.00229564,-0
 .00192174,-0.00473652,0.00051946,0.00074732,0.00033224,-0.00128817,0.0
 0026492,0.00055118,0.03945515,0.07688456,0.08280997,0.00011724,0.00011
 577,0.00086076,-0.00003185,-0.00003133,-0.00007669,-0.00024092,-0.0002
 4279,-0.00003228,-0.00005262,0.00004791,0.00001061,-0.00003857,0.00002
 021,-0.00002634,0.00000216,0.00000372,-0.00000905,0.00001903,-0.000005
 36,0.00000436,0.00000390,-0.00005413,-0.00002827,0.00349708,-0.0055220
 7,-0.00060028,-0.00036166,0.00029918,-0.00073542,0.00503225,-0.0021562
 6,0.00121461,0.00192994,-0.00132593,0.00001601,-0.13640818,-0.08861607
 ,0.10710384,-0.00573057,-0.00640927,0.01166882,-0.00067947,0.00049729,
 -0.00018263,0.00011273,-0.00019430,0.00000033,-0.00205048,0.00220174,-
 0.00064297,0.13696102,-0.00032014,0.00036619,0.00099917,-0.00002377,0.
 00002557,-0.00003313,-0.00034379,-0.00055125,-0.00001934,-0.00010309,-
 0.00006159,0.00008016,-0.00011001,-0.00003269,-0.00001911,0.00000724,-
 0.00000455,0.00002020,0.00001367,-0.00000030,-0.00001938,0.00001976,-0
 .00006594,0.00000244,-0.00497271,-0.00091650,-0.00376701,0.00039163,-0
 .00052126,-0.00066196,-0.00244836,0.00241341,-0.00310261,0.00634112,0.
 00819773,-0.00753264,-0.08855991,-0.11785102,0.08501735,-0.01407860,-0
 .00847589,0.01835850,0.00047167,-0.00037469,0.00025232,0.00018656,0.00
 029962,-0.00045438,0.00196398,-0.00081912,0.00109228,0.09916088,0.1191
 0285,-0.00019897,-0.00017739,0.00042256,-0.00000370,0.00003309,-0.0000
 1866,-0.00006110,-0.00007065,-0.00002098,-0.00004991,-0.00000687,0.000
 01716,0.00003936,0.00005283,-0.00000969,0.00000055,-0.00000281,-0.0000
 1489,0.00002191,-0.00002568,0.00000230,0.00000103,0.00002204,-0.000010
 52,-0.00024439,-0.00304312,0.00105691,-0.00069335,-0.00069079,-0.00039
 647,0.00064684,-0.00389677,-0.00427725,0.01806511,0.01692439,-0.014072
 79,0.10745277,0.08499268,-0.17457835,-0.00650335,-0.00590882,0.0093883
 3,-0.00017160,0.00022111,-0.00003689,0.00096215,0.00076435,-0.00084001
 ,-0.00115852,0.00038342,0.00070908,-0.11746085,-0.09063934,0.18210153,
 -0.00091237,0.00228931,0.00106558,-0.00039633,-0.00009300,-0.00104168,
 -0.00007504,-0.00002772,-0.00066775,-0.00001264,-0.00008521,0.00008252
 ,0.00016875,0.00001523,-0.00010213,0.00001828,0.00008010,-0.00002906,-
 0.00004335,0.00021794,0.00009763,-0.00016839,0.00001708,0.00010844,0.0
 0246275,0.00601206,0.01707710,0.00178949,-0.00483374,0.00332009,-0.000
 94681,-0.00033004,-0.00004305,0.00286603,-0.00570272,0.00047516,0.0045
 3158,-0.00448159,-0.01639493,-0.04640340,-0.00562199,0.02069034,0.0001
 7199,0.00020327,0.00095985,-0.00065079,0.00058625,-0.00024700,0.000212
 60,-0.00037578,-0.00074907,-0.00208104,0.00240388,-0.00064398,0.039468
 68,0.00127171,-0.00137047,0.00109281,-0.00010856,0.00023477,0.00034332
 ,0.00040382,0.00029894,-0.00026348,-0.00000449,-0.00001709,-0.00003982
 ,-0.00025590,-0.00021720,0.00015243,-0.00000313,0.00006881,-0.00007151
 ,0.00021042,-0.00039990,0.00000833,0.00016871,-0.00000794,-0.00012021,
 -0.00038140,0.00866260,0.01434892,-0.00469343,0.00090341,0.00116522,-0
 .00018620,-0.00079624,0.00043793,-0.00599099,-0.00121948,-0.00140044,0
 .00301600,-0.00373363,-0.02538158,-0.00576777,-0.07470304,-0.07844329,
 -0.00017799,0.00032370,0.00079194,0.00057745,-0.00034085,0.00012019,-0
 .00001568,-0.00023607,-0.00125798,0.00221081,-0.00073056,0.00106833,0.
 00972664,0.07328028,-0.00145586,-0.00074514,-0.00053611,0.00064546,0.0
 0057357,0.00053795,-0.00019820,-0.00000730,0.00055347,0.00010640,0.000
 04658,0.00007117,0.00060945,0.00022817,-0.00007442,-0.00004809,-0.0001
 2122,0.00009499,-0.00035452,0.00021303,0.00021498,-0.00021771,0.000132
 73,0.00012050,-0.00026328,-0.00805189,-0.01631678,0.00382178,0.0023092
 1,-0.00032537,-0.00000924,0.00055531,0.00054016,-0.00021615,-0.0023234
 3,0.00211213,0.00220055,-0.00093124,-0.00590737,0.02056484,-0.07919952
 ,-0.30167312,-0.00007357,-0.00063586,-0.00091131,-0.00022233,0.0000962
 3,-0.00015368,0.00015308,-0.00001459,-0.00042264,-0.00108456,0.0004264
 8,0.00057863,-0.02395805,0.08744888,0.32149683\\-0.00001247,0.00001109
 ,0.00001697,0.00000256,-0.00000077,-0.00000662,0.00001566,-0.00000135,
 -0.00000922,0.00000353,-0.00000691,-0.00000223,0.00000789,-0.00000764,
 -0.00000792,0.00000685,-0.00000120,-0.00000611,0.00000386,0.00000752,-
 0.00000330,0.00000746,0.00000171,-0.00000690,0.00000008,-0.00001335,-0
 .00001476,0.00000356,0.00000616,0.00000819,-0.00001243,-0.00001169,0.0
 0000583,0.00000185,0.00000022,-0.00000486,-0.00000534,0.00001114,0.000
 00892,-0.00000561,0.00000257,0.00000601,0.00000064,-0.00000847,0.00000
 088,-0.00000271,-0.00000359,0.00000344,-0.00000778,0.00000161,0.000007
 38,-0.00000646,0.00000660,0.00000372,-0.00000112,0.00000636,0.00000059
 \\\@


 Spring appears, and we are once more children.
                                  -- Anonymous
 Job cpu time:  0 days  0 hours 12 minutes 44.8 seconds.
 File lengths (MBytes):  RWF=     99 Int=      0 D2E=      0 Chk=      5 Scr=      1
 Normal termination of Gaussian 09 at Thu Jul 12 15:43:54 2018.
