 Entering Gaussian System, Link 0=g09
 Input=2-methyl-pentane.inp
 Output=2-methyl-pentane.log
 Initial command:
 /usr/local/g09/l1.exe /home/g09scr/Gau-4503.inp -scrdir=/home/g09scr/
 Entering Link 1 = /usr/local/g09/l1.exe PID=      4505.
  
 Copyright (c) 1988,1990,1992,1993,1995,1998,2003,2009,2010,
            Gaussian, Inc.  All Rights Reserved.
  
 This is part of the Gaussian(R) 09 program.  It is based on
 the Gaussian(R) 03 system (copyright 2003, Gaussian, Inc.),
 the Gaussian(R) 98 system (copyright 1998, Gaussian, Inc.),
 the Gaussian(R) 94 system (copyright 1995, Gaussian, Inc.),
 the Gaussian 92(TM) system (copyright 1992, Gaussian, Inc.),
 the Gaussian 90(TM) system (copyright 1990, Gaussian, Inc.),
 the Gaussian 88(TM) system (copyright 1988, Gaussian, Inc.),
 the Gaussian 86(TM) system (copyright 1986, Carnegie Mellon
 University), and the Gaussian 82(TM) system (copyright 1983,
 Carnegie Mellon University). Gaussian is a federally registered
 trademark of Gaussian, Inc.
  
 This software contains proprietary and confidential information,
 including trade secrets, belonging to Gaussian, Inc.
  
 This software is provided under written license and may be
 used, copied, transmitted, or stored only in accord with that
 written license.
  
 The following legend is applicable only to US Government
 contracts under FAR:
  
                    RESTRICTED RIGHTS LEGEND
  
 Use, reproduction and disclosure by the US Government is
 subject to restrictions as set forth in subparagraphs (a)
 and (c) of the Commercial Computer Software - Restricted
 Rights clause in FAR 52.227-19.
  
 Gaussian, Inc.
 340 Quinnipiac St., Bldg. 40, Wallingford CT 06492
  
  
 ---------------------------------------------------------------
 Warning -- This program may not be used in any manner that
 competes with the business of Gaussian, Inc. or will provide
 assistance to any competitor of Gaussian, Inc.  The licensee
 of this program is prohibited from giving any competitor of
 Gaussian, Inc. access to this program.  By using this program,
 the user acknowledges that Gaussian, Inc. is engaged in the
 business of creating and licensing software in the field of
 computational chemistry and represents and warrants to the
 licensee that it is not a competitor of Gaussian, Inc. and that
 it will not use this program in any manner prohibited above.
 ---------------------------------------------------------------
  

 Cite this work as:
 Gaussian 09, Revision B.01,
 M. J. Frisch, G. W. Trucks, H. B. Schlegel, G. E. Scuseria, 
 M. A. Robb, J. R. Cheeseman, G. Scalmani, V. Barone, B. Mennucci, 
 G. A. Petersson, H. Nakatsuji, M. Caricato, X. Li, H. P. Hratchian, 
 A. F. Izmaylov, J. Bloino, G. Zheng, J. L. Sonnenberg, M. Hada, 
 M. Ehara, K. Toyota, R. Fukuda, J. Hasegawa, M. Ishida, T. Nakajima, 
 Y. Honda, O. Kitao, H. Nakai, T. Vreven, J. A. Montgomery, Jr., 
 J. E. Peralta, F. Ogliaro, M. Bearpark, J. J. Heyd, E. Brothers, 
 K. N. Kudin, V. N. Staroverov, T. Keith, R. Kobayashi, J. Normand, 
 K. Raghavachari, A. Rendell, J. C. Burant, S. S. Iyengar, J. Tomasi, 
 M. Cossi, N. Rega, J. M. Millam, M. Klene, J. E. Knox, J. B. Cross, 
 V. Bakken, C. Adamo, J. Jaramillo, R. Gomperts, R. E. Stratmann, 
 O. Yazyev, A. J. Austin, R. Cammi, C. Pomelli, J. W. Ochterski, 
 R. L. Martin, K. Morokuma, V. G. Zakrzewski, G. A. Voth, 
 P. Salvador, J. J. Dannenberg, S. Dapprich, A. D. Daniels, 
 O. Farkas, J. B. Foresman, J. V. Ortiz, J. Cioslowski, 
 and D. J. Fox, Gaussian, Inc., Wallingford CT, 2010.
 
 ******************************************
 Gaussian 09:  EM64L-G09RevB.01 12-Aug-2010
                22-Jan-2018 
 ******************************************
 %nproc=4
 Will use up to    4 processors via shared memory.
 %mem=60gb
 ----------------------------
 #B3LYP/6-31G* fopt test freq
 ----------------------------
 1/14=-1,18=20,19=15,26=3,38=1/1,3;
 2/9=110,12=2,14=103,17=6,18=5,40=1/2;
 3/5=1,6=6,7=1,11=2,16=1,25=1,30=1,71=1,74=-5/1,2,3;
 4//1;
 5/5=2,38=5/2;
 6/7=2,8=2,9=2,10=2,28=1/1;
 7//1,2,3,16;
 1/14=-1,18=20,19=15/3(2);
 2/9=110/2;
 99//99;
 2/9=110/2;
 3/5=1,6=6,7=1,11=2,16=1,25=1,30=1,71=1,74=-5/1,2,3;
 4/5=5,16=3/1;
 5/5=2,38=5/2;
 7//1,2,3,16;
 1/14=-1,18=20,19=15/3(-5);
 2/9=110/2;
 6/7=2,8=2,9=2,10=2,19=2,28=1/1;
 99/9=1/99;
 --------------------------------
 IsomerC6H14/2-methyl-pentane.xyz
 --------------------------------
 Symbolic Z-matrix:
 Charge =  0 Multiplicity = 1
 6                     2.83091  -0.22582   0.13803 
 1                     3.67529   0.41513  -0.16536 
 1                     2.88306  -0.35794   1.23267 
 1                     2.97441  -1.21729  -0.32519 
 6                    -1.4262    1.37621   0.19078 
 1                    -0.71699   2.14695  -0.15208 
 1                    -2.43468   1.67913  -0.13972 
 1                    -1.42032   1.37465   1.29647 
 6                     1.48625   0.38015  -0.27291 
 1                     1.39082   1.38723   0.1705 
 1                     1.46022   0.51774  -1.37086 
 6                     0.30173  -0.49399   0.15086 
 1                     0.27666  -0.56627   1.2575 
 6                    -1.07193  -0.0159   -0.34455 
 1                    -1.03051   0.0391   -1.45134 
 6                    -2.15747  -1.02662   0.04202 
 1                    -1.93058  -2.03082  -0.35516 
 1                    -2.2338   -1.10695   1.14157 
 1                    -3.14546  -0.72149  -0.34329 
 1                     0.47224  -1.52335  -0.22119 
 

 GradGradGradGradGradGradGradGradGradGradGradGradGradGradGradGradGradGrad
 Berny optimization.
 Initialization pass.
                           ----------------------------
                           !    Initial Parameters    !
                           ! (Angstroms and Degrees)  !
 --------------------------                            --------------------------
 ! Name  Definition              Value          Derivative Info.                !
 --------------------------------------------------------------------------------
 ! R1    R(1,2)                  1.1027         estimate D2E/DX2                !
 ! R2    R(1,3)                  1.1038         estimate D2E/DX2                !
 ! R3    R(1,4)                  1.1037         estimate D2E/DX2                !
 ! R4    R(1,9)                  1.5311         estimate D2E/DX2                !
 ! R5    R(5,6)                  1.1021         estimate D2E/DX2                !
 ! R6    R(5,7)                  1.1036         estimate D2E/DX2                !
 ! R7    R(5,8)                  1.1057         estimate D2E/DX2                !
 ! R8    R(5,14)                 1.533          estimate D2E/DX2                !
 ! R9    R(9,10)                 1.1045         estimate D2E/DX2                !
 ! R10   R(9,11)                 1.1068         estimate D2E/DX2                !
 ! R11   R(9,12)                 1.5319         estimate D2E/DX2                !
 ! R12   R(12,13)                1.1093         estimate D2E/DX2                !
 ! R13   R(12,14)                1.5365         estimate D2E/DX2                !
 ! R14   R(12,20)                1.1077         estimate D2E/DX2                !
 ! R15   R(14,15)                1.1089         estimate D2E/DX2                !
 ! R16   R(14,16)                1.5328         estimate D2E/DX2                !
 ! R17   R(16,17)                1.1035         estimate D2E/DX2                !
 ! R18   R(16,18)                1.1051         estimate D2E/DX2                !
 ! R19   R(16,19)                1.1035         estimate D2E/DX2                !
 ! A1    A(2,1,3)              107.8332         estimate D2E/DX2                !
 ! A2    A(2,1,4)              107.8862         estimate D2E/DX2                !
 ! A3    A(2,1,9)              111.6313         estimate D2E/DX2                !
 ! A4    A(3,1,4)              107.6104         estimate D2E/DX2                !
 ! A5    A(3,1,9)              110.7955         estimate D2E/DX2                !
 ! A6    A(4,1,9)              110.9207         estimate D2E/DX2                !
 ! A7    A(6,5,7)              107.6332         estimate D2E/DX2                !
 ! A8    A(6,5,8)              107.979          estimate D2E/DX2                !
 ! A9    A(6,5,14)             112.1924         estimate D2E/DX2                !
 ! A10   A(7,5,8)              107.7413         estimate D2E/DX2                !
 ! A11   A(7,5,14)             110.845          estimate D2E/DX2                !
 ! A12   A(8,5,14)             110.2845         estimate D2E/DX2                !
 ! A13   A(1,9,10)             109.2082         estimate D2E/DX2                !
 ! A14   A(1,9,11)             109.639          estimate D2E/DX2                !
 ! A15   A(1,9,12)             112.2717         estimate D2E/DX2                !
 ! A16   A(10,9,11)            106.4306         estimate D2E/DX2                !
 ! A17   A(10,9,12)            110.0248         estimate D2E/DX2                !
 ! A18   A(11,9,12)            109.096          estimate D2E/DX2                !
 ! A19   A(9,12,13)            109.3063         estimate D2E/DX2                !
 ! A20   A(9,12,14)            115.1208         estimate D2E/DX2                !
 ! A21   A(9,12,20)            108.5604         estimate D2E/DX2                !
 ! A22   A(13,12,14)           108.7673         estimate D2E/DX2                !
 ! A23   A(13,12,20)           106.1412         estimate D2E/DX2                !
 ! A24   A(14,12,20)           108.5694         estimate D2E/DX2                !
 ! A25   A(5,14,12)            112.1208         estimate D2E/DX2                !
 ! A26   A(5,14,15)            108.1871         estimate D2E/DX2                !
 ! A27   A(5,14,16)            110.3082         estimate D2E/DX2                !
 ! A28   A(12,14,15)           107.6882         estimate D2E/DX2                !
 ! A29   A(12,14,16)           110.2832         estimate D2E/DX2                !
 ! A30   A(15,14,16)           108.1124         estimate D2E/DX2                !
 ! A31   A(14,16,17)           111.3268         estimate D2E/DX2                !
 ! A32   A(14,16,18)           110.3518         estimate D2E/DX2                !
 ! A33   A(14,16,19)           111.3275         estimate D2E/DX2                !
 ! A34   A(17,16,18)           107.8291         estimate D2E/DX2                !
 ! A35   A(17,16,19)           108.0616         estimate D2E/DX2                !
 ! A36   A(18,16,19)           107.7987         estimate D2E/DX2                !
 ! D1    D(2,1,9,10)           -57.2662         estimate D2E/DX2                !
 ! D2    D(2,1,9,11)            58.9879         estimate D2E/DX2                !
 ! D3    D(2,1,9,12)          -179.5785         estimate D2E/DX2                !
 ! D4    D(3,1,9,10)            62.933          estimate D2E/DX2                !
 ! D5    D(3,1,9,11)           179.1872         estimate D2E/DX2                !
 ! D6    D(3,1,9,12)           -59.3793         estimate D2E/DX2                !
 ! D7    D(4,1,9,10)          -177.6181         estimate D2E/DX2                !
 ! D8    D(4,1,9,11)           -61.364          estimate D2E/DX2                !
 ! D9    D(4,1,9,12)            60.0696         estimate D2E/DX2                !
 ! D10   D(6,5,14,12)           62.231          estimate D2E/DX2                !
 ! D11   D(6,5,14,15)          -56.374          estimate D2E/DX2                !
 ! D12   D(6,5,14,16)         -174.4408         estimate D2E/DX2                !
 ! D13   D(7,5,14,12)         -177.4111         estimate D2E/DX2                !
 ! D14   D(7,5,14,15)           63.9839         estimate D2E/DX2                !
 ! D15   D(7,5,14,16)          -54.0829         estimate D2E/DX2                !
 ! D16   D(8,5,14,12)          -58.1788         estimate D2E/DX2                !
 ! D17   D(8,5,14,15)         -176.7838         estimate D2E/DX2                !
 ! D18   D(8,5,14,16)           65.1494         estimate D2E/DX2                !
 ! D19   D(1,9,12,13)           62.8151         estimate D2E/DX2                !
 ! D20   D(1,9,12,14)         -174.4492         estimate D2E/DX2                !
 ! D21   D(1,9,12,20)          -52.5482         estimate D2E/DX2                !
 ! D22   D(10,9,12,13)         -59.0328         estimate D2E/DX2                !
 ! D23   D(10,9,12,14)          63.7029         estimate D2E/DX2                !
 ! D24   D(10,9,12,20)        -174.3962         estimate D2E/DX2                !
 ! D25   D(11,9,12,13)        -175.4409         estimate D2E/DX2                !
 ! D26   D(11,9,12,14)         -52.7052         estimate D2E/DX2                !
 ! D27   D(11,9,12,20)          69.1957         estimate D2E/DX2                !
 ! D28   D(9,12,14,5)          -61.3039         estimate D2E/DX2                !
 ! D29   D(9,12,14,15)          57.5955         estimate D2E/DX2                !
 ! D30   D(9,12,14,16)         175.3539         estimate D2E/DX2                !
 ! D31   D(13,12,14,5)          61.7195         estimate D2E/DX2                !
 ! D32   D(13,12,14,15)       -179.3811         estimate D2E/DX2                !
 ! D33   D(13,12,14,16)        -61.6227         estimate D2E/DX2                !
 ! D34   D(20,12,14,5)         176.8001         estimate D2E/DX2                !
 ! D35   D(20,12,14,15)        -64.3006         estimate D2E/DX2                !
 ! D36   D(20,12,14,16)         53.4578         estimate D2E/DX2                !
 ! D37   D(5,14,16,17)         178.696          estimate D2E/DX2                !
 ! D38   D(5,14,16,18)         -61.6083         estimate D2E/DX2                !
 ! D39   D(5,14,16,19)          58.0498         estimate D2E/DX2                !
 ! D40   D(12,14,16,17)        -56.9133         estimate D2E/DX2                !
 ! D41   D(12,14,16,18)         62.7824         estimate D2E/DX2                !
 ! D42   D(12,14,16,19)       -177.5595         estimate D2E/DX2                !
 ! D43   D(15,14,16,17)         60.5833         estimate D2E/DX2                !
 ! D44   D(15,14,16,18)       -179.721          estimate D2E/DX2                !
 ! D45   D(15,14,16,19)        -60.0629         estimate D2E/DX2                !
 --------------------------------------------------------------------------------
 Trust Radius=3.00D-01 FncErr=1.00D-07 GrdErr=1.00D-06
 Number of steps in this run=    110 maximum allowed number of steps=    120.
 GradGradGradGradGradGradGradGradGradGradGradGradGradGradGradGradGradGrad

                          Input orientation:                          
 ---------------------------------------------------------------------
 Center     Atomic      Atomic             Coordinates (Angstroms)
 Number     Number       Type             X           Y           Z
 ---------------------------------------------------------------------
      1          6           0        2.830906   -0.225823    0.138029
      2          1           0        3.675292    0.415128   -0.165358
      3          1           0        2.883060   -0.357940    1.232675
      4          1           0        2.974407   -1.217290   -0.325191
      5          6           0       -1.426204    1.376214    0.190784
      6          1           0       -0.716985    2.146948   -0.152083
      7          1           0       -2.434679    1.679130   -0.139720
      8          1           0       -1.420315    1.374645    1.296473
      9          6           0        1.486248    0.380148   -0.272906
     10          1           0        1.390823    1.387230    0.170500
     11          1           0        1.460219    0.517736   -1.370856
     12          6           0        0.301726   -0.493989    0.150864
     13          1           0        0.276660   -0.566265    1.257504
     14          6           0       -1.071934   -0.015903   -0.344548
     15          1           0       -1.030509    0.039102   -1.451340
     16          6           0       -2.157469   -1.026617    0.042023
     17          1           0       -1.930584   -2.030818   -0.355164
     18          1           0       -2.233799   -1.106949    1.141568
     19          1           0       -3.145462   -0.721492   -0.343289
     20          1           0        0.472243   -1.523348   -0.221194
 ---------------------------------------------------------------------
                    Distance matrix (angstroms):
                    1          2          3          4          5
     1  C    0.000000
     2  H    1.102656   0.000000
     3  H    1.103823   1.783189   0.000000
     4  H    1.103708   1.783697   1.781509   0.000000
     5  C    4.548878   5.203440   4.760523   5.133992   0.000000
     6  H    4.278053   4.721385   4.599168   4.997443   1.102080
     7  H    5.606458   6.239399   5.857599   6.138555   1.103636
     8  H    4.687896   5.387284   4.639500   5.353644   1.105706
     9  C    1.531069   2.191963   2.182345   2.183840   3.112801
    10  H    2.162599   2.505311   2.529942   3.088199   2.817122
    11  H    2.169884   2.523946   3.093486   2.529129   3.392218
    12  C    2.543389   3.508196   2.802162   2.809451   2.546565
    13  H    2.809501   3.812921   2.614830   3.194776   2.794792
    14  C    3.938160   4.770121   4.271604   4.220969   1.532996
    15  H    4.184113   4.892822   4.762101   4.345812   2.154301
    16  C    5.053155   6.011883   5.222233   5.148529   2.516044
    17  H    5.115959   6.119193   5.337689   4.972088   3.487166
    18  H    5.237815   6.240363   5.172191   5.411928   2.778902
    19  H    6.016172   6.917098   6.241707   6.139946   2.764318
    20  H    2.715861   3.744373   3.046957   2.522957   3.490170
                    6          7          8          9         10
     6  H    0.000000
     7  H    1.780303   0.000000
     8  H    1.785900   1.784460   0.000000
     9  C    2.826732   4.132646   3.449650   0.000000
    10  H    2.263644   3.849144   3.028278   1.104504   0.000000
    11  H    2.979926   4.246735   4.018260   1.106843   1.771049
    12  C    2.846770   3.506394   2.787407   1.531923   2.173822
    13  H    3.214932   3.787531   2.578444   2.168169   2.497815
    14  C    2.200217   2.184529   2.178978   2.589649   2.880838
    15  H    2.495873   2.526209   3.079951   2.799837   3.211022
    16  C    3.490585   2.725976   2.807686   3.918525   4.293430
    17  H    4.355203   3.750232   3.819091   4.182615   4.794906
    18  H    3.816032   3.073156   2.616116   4.248640   4.505750
    19  H    3.763244   2.511899   3.171552   4.761439   5.028774
    20  H    3.858771   4.325818   3.779345   2.157354   3.077122
                   11         12         13         14         15
    11  H    0.000000
    12  C    2.163637   0.000000
    13  H    3.079634   1.109281   0.000000
    14  C    2.783860   1.536535   2.165219   0.000000
    15  H    2.537576   2.150836   3.068061   1.108932   0.000000
    16  C    4.179584   2.518567   2.759402   1.532764   2.153121
    17  H    4.361686   2.757012   3.101216   2.190268   2.509244
    18  H    4.753698   2.790359   2.570639   2.179186   3.079693
    19  H    4.878922   3.489850   3.781210   2.190291   2.505854
    20  H    2.542409   1.107738   1.772233   2.161502   2.492543
                   16         17         18         19         20
    16  C    0.000000
    17  H    1.103474   0.000000
    18  H    1.105115   1.784847   0.000000
    19  H    1.103493   1.786170   1.784519   0.000000
    20  H    2.689128   2.459482   3.058296   3.707515   0.000000
 Stoichiometry    C6H14
 Framework group  C1[X(C6H14)]
 Deg. of freedom    54
 Full point group                 C1      NOp   1
 Largest Abelian subgroup         C1      NOp   1
 Largest concise Abelian subgroup C1      NOp   1
                         Standard orientation:                         
 ---------------------------------------------------------------------
 Center     Atomic      Atomic             Coordinates (Angstroms)
 Number     Number       Type             X           Y           Z
 ---------------------------------------------------------------------
      1          6           0        2.830906   -0.225823    0.138029
      2          1           0        3.675292    0.415127   -0.165358
      3          1           0        2.883060   -0.357940    1.232675
      4          1           0        2.974407   -1.217290   -0.325191
      5          6           0       -1.426204    1.376214    0.190784
      6          1           0       -0.716985    2.146948   -0.152083
      7          1           0       -2.434679    1.679131   -0.139720
      8          1           0       -1.420315    1.374645    1.296473
      9          6           0        1.486248    0.380148   -0.272906
     10          1           0        1.390823    1.387230    0.170500
     11          1           0        1.460219    0.517736   -1.370856
     12          6           0        0.301726   -0.493989    0.150864
     13          1           0        0.276660   -0.566265    1.257504
     14          6           0       -1.071934   -0.015903   -0.344548
     15          1           0       -1.030509    0.039102   -1.451340
     16          6           0       -2.157469   -1.026617    0.042023
     17          1           0       -1.930585   -2.030818   -0.355164
     18          1           0       -2.233799   -1.106949    1.141568
     19          1           0       -3.145462   -0.721491   -0.343289
     20          1           0        0.472243   -1.523348   -0.221194
 ---------------------------------------------------------------------
 Rotational constants (GHZ):      6.6016322      1.7107988      1.4686580
 Standard basis: 6-31G(d) (6D, 7F)
 There are   118 symmetry adapted basis functions of A   symmetry.
 Integral buffers will be    131072 words long.
 Raffenetti 2 integral format.
 Two-electron integral symmetry is turned on.
   118 basis functions,   224 primitive gaussians,   118 cartesian basis functions
    25 alpha electrons       25 beta electrons
       nuclear repulsion energy       252.9660256061 Hartrees.
 NAtoms=   20 NActive=   20 NUniq=   20 SFac= 1.00D+00 NAtFMM=   50 NAOKFM=F Big=F
 One-electron integrals computed using PRISM.
 NBasis=   118 RedAO= T  NBF=   118
 NBsUse=   118 1.00D-06 NBFU=   118
 Harris functional with IExCor=  402 diagonalized for initial guess.
 ExpMin= 1.61D-01 ExpMax= 3.05D+03 ExpMxC= 4.57D+02 IAcc=1 IRadAn=         1 AccDes= 0.00D+00
 HarFok:  IExCor=  402 AccDes= 0.00D+00 IRadAn=         1 IDoV= 1
 ScaDFX=  1.000000  1.000000  1.000000  1.000000
 FoFCou: FMM=F IPFlag=           0 FMFlag=      100000 FMFlg1=           0
         NFxFlg=           0 DoJE=T BraDBF=F KetDBF=T FulRan=T
         Omega=  0.000000  0.000000  1.000000  0.000000  0.000000 ICntrl=     500 IOpCl=  0
         NMat0=    1 NMatS0=    1 NMatT0=    0 NMatD0=    1 NMtDS0=    0 NMtDT0=    0
         I1Cent=           4 NGrid=           0.
 Petite list used in FoFCou.
 Initial guess orbital symmetries:
       Occupied  (A) (A) (A) (A) (A) (A) (A) (A) (A) (A) (A) (A)
                 (A) (A) (A) (A) (A) (A) (A) (A) (A) (A) (A) (A)
                 (A)
       Virtual   (A) (A) (A) (A) (A) (A) (A) (A) (A) (A) (A) (A)
                 (A) (A) (A) (A) (A) (A) (A) (A) (A) (A) (A) (A)
                 (A) (A) (A) (A) (A) (A) (A) (A) (A) (A) (A) (A)
                 (A) (A) (A) (A) (A) (A) (A) (A) (A) (A) (A) (A)
                 (A) (A) (A) (A) (A) (A) (A) (A) (A) (A) (A) (A)
                 (A) (A) (A) (A) (A) (A) (A) (A) (A) (A) (A) (A)
                 (A) (A) (A) (A) (A) (A) (A) (A) (A) (A) (A) (A)
                 (A) (A) (A) (A) (A) (A) (A) (A) (A)
 The electronic state of the initial guess is 1-A.
 Requested convergence on RMS density matrix=1.00D-08 within 128 cycles.
 Requested convergence on MAX density matrix=1.00D-06.
 Requested convergence on             energy=1.00D-06.
 No special actions if energy rises.
 Keep R1 ints in memory in canonical form, NReq=25818946.
 Integral accuracy reduced to 1.0D-05 until final iterations.
 Initial convergence to 1.0D-05 achieved.  Increase integral accuracy.
 SCF Done:  E(RB3LYP) =  -237.084169460     A.U. after   12 cycles
             Convg  =    0.4985D-08             -V/T =  2.0109

 **********************************************************************

            Population analysis using the SCF density.

 **********************************************************************

 Orbital symmetries:
       Occupied  (A) (A) (A) (A) (A) (A) (A) (A) (A) (A) (A) (A)
                 (A) (A) (A) (A) (A) (A) (A) (A) (A) (A) (A) (A)
                 (A)
       Virtual   (A) (A) (A) (A) (A) (A) (A) (A) (A) (A) (A) (A)
                 (A) (A) (A) (A) (A) (A) (A) (A) (A) (A) (A) (A)
                 (A) (A) (A) (A) (A) (A) (A) (A) (A) (A) (A) (A)
                 (A) (A) (A) (A) (A) (A) (A) (A) (A) (A) (A) (A)
                 (A) (A) (A) (A) (A) (A) (A) (A) (A) (A) (A) (A)
                 (A) (A) (A) (A) (A) (A) (A) (A) (A) (A) (A) (A)
                 (A) (A) (A) (A) (A) (A) (A) (A) (A) (A) (A) (A)
                 (A) (A) (A) (A) (A) (A) (A) (A) (A)
 The electronic state is 1-A.
 Alpha  occ. eigenvalues --  -10.18330 -10.17714 -10.17383 -10.17217 -10.17018
 Alpha  occ. eigenvalues --  -10.17017  -0.80698  -0.75506  -0.67477  -0.66778
 Alpha  occ. eigenvalues --   -0.58629  -0.54956  -0.46687  -0.43918  -0.43370
 Alpha  occ. eigenvalues --   -0.41224  -0.39103  -0.37668  -0.37255  -0.35836
 Alpha  occ. eigenvalues --   -0.34342  -0.32843  -0.31418  -0.31164  -0.30415
 Alpha virt. eigenvalues --    0.08629   0.10954   0.11984   0.12888   0.14839
 Alpha virt. eigenvalues --    0.15725   0.16262   0.16834   0.17847   0.18592
 Alpha virt. eigenvalues --    0.19304   0.19659   0.21246   0.21860   0.23869
 Alpha virt. eigenvalues --    0.25187   0.26849   0.27488   0.28783   0.49640
 Alpha virt. eigenvalues --    0.51291   0.52361   0.52761   0.54140   0.56273
 Alpha virt. eigenvalues --    0.58391   0.63202   0.65811   0.67814   0.69292
 Alpha virt. eigenvalues --    0.72070   0.72931   0.74370   0.80570   0.81179
 Alpha virt. eigenvalues --    0.85333   0.86593   0.88181   0.89432   0.89937
 Alpha virt. eigenvalues --    0.90160   0.91416   0.91992   0.93884   0.94678
 Alpha virt. eigenvalues --    0.96138   0.96436   0.97222   0.99347   1.00353
 Alpha virt. eigenvalues --    1.03641   1.10681   1.28849   1.40630   1.42783
 Alpha virt. eigenvalues --    1.44703   1.46742   1.54625   1.60441   1.69493
 Alpha virt. eigenvalues --    1.73811   1.79315   1.83623   1.84735   1.91201
 Alpha virt. eigenvalues --    1.93569   1.96701   1.98622   2.00433   2.02040
 Alpha virt. eigenvalues --    2.03892   2.10188   2.14296   2.20943   2.23077
 Alpha virt. eigenvalues --    2.23901   2.25437   2.32664   2.35180   2.37074
 Alpha virt. eigenvalues --    2.44727   2.51550   2.53062   2.58981   2.68822
 Alpha virt. eigenvalues --    2.77235   2.80890   4.12469   4.21451   4.28865
 Alpha virt. eigenvalues --    4.33545   4.46441   4.59650
          Condensed to atoms (all electrons):
              1          2          3          4          5          6
     1  C    5.069906   0.370296   0.376326   0.376165   0.000183  -0.000077
     2  H    0.370296   0.580861  -0.030980  -0.030850   0.000005   0.000005
     3  H    0.376326  -0.030980   0.581544  -0.032340  -0.000016   0.000009
     4  H    0.376165  -0.030850  -0.032340   0.581290   0.000002   0.000000
     5  C    0.000183   0.000005  -0.000016   0.000002   5.116322   0.369395
     6  H   -0.000077   0.000005   0.000009   0.000000   0.369395   0.574675
     7  H   -0.000001   0.000000   0.000000   0.000000   0.368875  -0.030000
     8  H   -0.000036   0.000000   0.000002   0.000000   0.370060  -0.031191
     9  C    0.369323  -0.027808  -0.035426  -0.035056  -0.004612   0.002193
    10  H   -0.038204  -0.002504  -0.004442   0.005130   0.002791   0.002565
    11  H   -0.038502  -0.002596   0.005228  -0.004546  -0.000967   0.000649
    12  C   -0.042968   0.004130  -0.004411  -0.004886  -0.049943  -0.004879
    13  H   -0.002857  -0.000059   0.004715  -0.000353  -0.008274  -0.000014
    14  C    0.003727  -0.000130   0.000074  -0.000032   0.379924  -0.028534
    15  H    0.000014   0.000000   0.000008   0.000003  -0.048276  -0.003539
    16  C   -0.000139   0.000002   0.000002  -0.000006  -0.055272   0.005137
    17  H   -0.000004   0.000000   0.000000   0.000000   0.005368  -0.000186
    18  H   -0.000001   0.000000  -0.000001   0.000000  -0.005764  -0.000033
    19  H    0.000002   0.000000   0.000000   0.000000  -0.003825  -0.000046
    20  H   -0.004119   0.000033  -0.000392   0.005715   0.005806  -0.000055
              7          8          9         10         11         12
     1  C   -0.000001  -0.000036   0.369323  -0.038204  -0.038502  -0.042968
     2  H    0.000000   0.000000  -0.027808  -0.002504  -0.002596   0.004130
     3  H    0.000000   0.000002  -0.035426  -0.004442   0.005228  -0.004411
     4  H    0.000000   0.000000  -0.035056   0.005130  -0.004546  -0.004886
     5  C    0.368875   0.370060  -0.004612   0.002791  -0.000967  -0.049943
     6  H   -0.030000  -0.031191   0.002193   0.002565   0.000649  -0.004879
     7  H    0.583995  -0.031203   0.000130  -0.000069  -0.000038   0.005030
     8  H   -0.031203   0.587353  -0.000559   0.000443   0.000108  -0.006082
     9  C    0.000130  -0.000559   4.964021   0.376048   0.375620   0.385284
    10  H   -0.000069   0.000443   0.376048   0.605861  -0.039415  -0.037056
    11  H   -0.000038   0.000108   0.375620  -0.039415   0.615234  -0.042820
    12  C    0.005030  -0.006082   0.385284  -0.037056  -0.042820   5.013573
    13  H   -0.000047   0.006037  -0.040166  -0.005893   0.005999   0.363859
    14  C   -0.030655  -0.035823  -0.034152  -0.005117  -0.003376   0.390194
    15  H   -0.002894   0.005915  -0.005492  -0.000227   0.006216  -0.047993
    16  C   -0.004761  -0.005190   0.004212   0.000003   0.000086  -0.048204
    17  H   -0.000007  -0.000056   0.000010   0.000000  -0.000003  -0.004227
    18  H   -0.000215   0.005090   0.000020   0.000003   0.000009  -0.006421
    19  H    0.004521  -0.000216  -0.000146   0.000003   0.000001   0.004776
    20  H   -0.000169  -0.000006  -0.042699   0.005781  -0.004455   0.368604
             13         14         15         16         17         18
     1  C   -0.002857   0.003727   0.000014  -0.000139  -0.000004  -0.000001
     2  H   -0.000059  -0.000130   0.000000   0.000002   0.000000   0.000000
     3  H    0.004715   0.000074   0.000008   0.000002   0.000000  -0.000001
     4  H   -0.000353  -0.000032   0.000003  -0.000006   0.000000   0.000000
     5  C   -0.008274   0.379924  -0.048276  -0.055272   0.005368  -0.005764
     6  H   -0.000014  -0.028534  -0.003539   0.005137  -0.000186  -0.000033
     7  H   -0.000047  -0.030655  -0.002894  -0.004761  -0.000007  -0.000215
     8  H    0.006037  -0.035823   0.005915  -0.005190  -0.000056   0.005090
     9  C   -0.040166  -0.034152  -0.005492   0.004212   0.000010   0.000020
    10  H   -0.005893  -0.005117  -0.000227   0.000003   0.000000   0.000003
    11  H    0.005999  -0.003376   0.006216   0.000086  -0.000003   0.000009
    12  C    0.363859   0.390194  -0.047993  -0.048204  -0.004227  -0.006421
    13  H    0.626166  -0.037944   0.006552  -0.004540  -0.000279   0.005361
    14  C   -0.037944   4.840015   0.377790   0.378083  -0.030311  -0.034693
    15  H    0.006552   0.377790   0.644708  -0.045464  -0.003212   0.005837
    16  C   -0.004540   0.378083  -0.045464   5.113188   0.368598   0.370744
    17  H   -0.000279  -0.030311  -0.003212   0.368598   0.582392  -0.031024
    18  H    0.005361  -0.034693   0.005837   0.370744  -0.031024   0.586461
    19  H   -0.000059  -0.028433  -0.003357   0.366609  -0.029833  -0.031369
    20  H   -0.038545  -0.037319  -0.003999  -0.004665   0.005307  -0.000296
             19         20
     1  C    0.000002  -0.004119
     2  H    0.000000   0.000033
     3  H    0.000000  -0.000392
     4  H    0.000000   0.005715
     5  C   -0.003825   0.005806
     6  H   -0.000046  -0.000055
     7  H    0.004521  -0.000169
     8  H   -0.000216  -0.000006
     9  C   -0.000146  -0.042699
    10  H    0.000003   0.005781
    11  H    0.000001  -0.004455
    12  C    0.004776   0.368604
    13  H   -0.000059  -0.038545
    14  C   -0.028433  -0.037319
    15  H   -0.003357  -0.003999
    16  C    0.366609  -0.004665
    17  H   -0.029833   0.005307
    18  H   -0.031369  -0.000296
    19  H    0.584278   0.000002
    20  H    0.000002   0.623344
 Mulliken atomic charges:
              1
     1  C   -0.439034
     2  H    0.139597
     3  H    0.140098
     4  H    0.139763
     5  C   -0.441783
     6  H    0.143925
     7  H    0.137508
     8  H    0.135354
     9  C   -0.250745
    10  H    0.134300
    11  H    0.127568
    12  C   -0.235561
    13  H    0.120340
    14  C   -0.063289
    15  H    0.117409
    16  C   -0.438422
    17  H    0.137466
    18  H    0.136290
    19  H    0.137091
    20  H    0.122126
 Sum of Mulliken atomic charges =   0.00000
 Mulliken charges with hydrogens summed into heavy atoms:
              1
     1  C   -0.019576
     5  C   -0.024996
     9  C    0.011123
    12  C    0.006905
    14  C    0.054120
    16  C   -0.027575
 Sum of Mulliken charges with hydrogens summed into heavy atoms =   0.00000
 Electronic spatial extent (au):  <R**2>=            901.7464
 Charge=              0.0000 electrons
 Dipole moment (field-independent basis, Debye):
    X=              0.0154    Y=              0.0375    Z=             -0.0771  Tot=              0.0871
 Quadrupole moment (field-independent basis, Debye-Ang):
   XX=            -42.2998   YY=            -41.8709   ZZ=            -41.1910
   XY=              0.0489   XZ=              0.0577   YZ=              0.1622
 Traceless Quadrupole moment (field-independent basis, Debye-Ang):
   XX=             -0.5126   YY=             -0.0837   ZZ=              0.5963
   XY=              0.0489   XZ=              0.0577   YZ=              0.1622
 Octapole moment (field-independent basis, Debye-Ang**2):
  XXX=             -1.8355  YYY=             -0.7636  ZZZ=              0.8615  XYY=              1.6028
  XXY=              2.0754  XXZ=             -1.5639  XZZ=              0.0955  YZZ=             -0.1454
  YYZ=             -1.2128  XYZ=              0.3762
 Hexadecapole moment (field-independent basis, Debye-Ang**3):
 XXXX=           -907.6870 YYYY=           -251.0581 ZZZZ=            -96.8846 XXXY=              0.0737
 XXXZ=              1.3518 YYYX=              1.1128 YYYZ=              1.5832 ZZZX=             -0.3257
 ZZZY=             -0.4460 XXYY=           -194.7256 XXZZ=           -167.0116 YYZZ=            -59.5674
 XXYZ=             -0.4164 YYXZ=              0.2869 ZZXY=              0.0026
 N-N= 2.529660256061D+02 E-N=-1.052776441091D+03  KE= 2.345372979896D+02
 Calling FoFJK, ICntrl=      2127 FMM=F ISym2X=0 I1Cent= 0 IOpClX= 0 NMat=1 NMatS=1 NMatT=0.
 ***** Axes restored to original set *****
 -------------------------------------------------------------------
 Center     Atomic                   Forces (Hartrees/Bohr)
 Number     Number              X              Y              Z
 -------------------------------------------------------------------
      1        6           0.003733866   -0.001078032    0.000909240
      2        1          -0.003045062   -0.002698883    0.001304638
      3        1           0.000472273    0.000289005   -0.004298148
      4        1           0.000078939    0.003785160    0.002069130
      5        6          -0.002001173    0.004763891    0.001333967
      6        1          -0.003247532   -0.002895013    0.001749864
      7        1           0.004140028   -0.000676340    0.001662700
      8        1          -0.000324506    0.000946345   -0.004603150
      9        6           0.000648467    0.003306906   -0.002114405
     10        1           0.000539336   -0.003867255   -0.002233978
     11        1           0.000463695   -0.000091113    0.004395610
     12        6           0.000943604   -0.004198432    0.002524081
     13        1           0.000466923   -0.000142465   -0.004793079
     14        6          -0.000168459   -0.000043915   -0.004188166
     15        1          -0.000408479   -0.000127698    0.004443720
     16        6          -0.003511225   -0.003094147    0.000810857
     17        1          -0.001395422    0.003759160    0.001815347
     18        1          -0.000443089   -0.000336705   -0.004575932
     19        1           0.003770993   -0.001728966    0.001778361
     20        1          -0.000713177    0.004128497    0.002009341
 -------------------------------------------------------------------
 Cartesian Forces:  Max     0.004793079 RMS     0.002617123

 GradGradGradGradGradGradGradGradGradGradGradGradGradGradGradGradGradGrad
 Berny optimization.
 Internal  Forces:  Max     0.004786050 RMS     0.001822422
 Search for a local minimum.
 Step number   1 out of a maximum of  110
 All quantities printed in internal units (Hartrees-Bohrs-Radians)
 Mixed Optimization -- RFO/linear search
 Second derivative matrix not updated -- first step.
 ITU=  0
     Eigenvalues ---    0.00283   0.00329   0.00333   0.00344   0.00355
     Eigenvalues ---    0.03259   0.03522   0.03546   0.04681   0.04742
     Eigenvalues ---    0.04826   0.04872   0.05381   0.05438   0.05443
     Eigenvalues ---    0.05545   0.05562   0.05574   0.08273   0.08728
     Eigenvalues ---    0.12161   0.12492   0.16000   0.16000   0.16000
     Eigenvalues ---    0.16000   0.16000   0.16000   0.16000   0.16000
     Eigenvalues ---    0.16000   0.16571   0.16922   0.21892   0.21948
     Eigenvalues ---    0.28828   0.29148   0.29170   0.29247   0.29325
     Eigenvalues ---    0.32676   0.32713   0.32841   0.32937   0.33059
     Eigenvalues ---    0.33123   0.33189   0.33263   0.33275   0.33283
     Eigenvalues ---    0.33299   0.33301   0.33390   0.33453
 RFO step:  Lambda=-1.20473553D-03 EMin= 2.82653994D-03
 Linear search not attempted -- first point.
 Iteration  1 RMS(Cart)=  0.02928771 RMS(Int)=  0.00024861
 Iteration  2 RMS(Cart)=  0.00036511 RMS(Int)=  0.00001930
 Iteration  3 RMS(Cart)=  0.00000005 RMS(Int)=  0.00001930
 Variable       Old X    -DE/DX   Delta X   Delta X   Delta X     New X
                                 (Linear)    (Quad)   (Total)
    R1        2.08372  -0.00426   0.00000  -0.01272  -0.01272   2.07100
    R2        2.08592  -0.00428   0.00000  -0.01283  -0.01283   2.07310
    R3        2.08571  -0.00425   0.00000  -0.01271  -0.01271   2.07299
    R4        2.89330   0.00097   0.00000   0.00330   0.00330   2.89660
    R5        2.08263  -0.00466   0.00000  -0.01387  -0.01387   2.06876
    R6        2.08557  -0.00447   0.00000  -0.01339  -0.01339   2.07218
    R7        2.08948  -0.00460   0.00000  -0.01385  -0.01385   2.07563
    R8        2.89694   0.00235   0.00000   0.00802   0.00802   2.90496
    R9        2.08721  -0.00447   0.00000  -0.01343  -0.01343   2.07378
   R10        2.09163  -0.00438   0.00000  -0.01325  -0.01325   2.07838
   R11        2.89492   0.00201   0.00000   0.00684   0.00684   2.90175
   R12        2.09624  -0.00479   0.00000  -0.01459  -0.01459   2.08164
   R13        2.90363   0.00331   0.00000   0.01143   0.01143   2.91506
   R14        2.09332  -0.00462   0.00000  -0.01401  -0.01401   2.07931
   R15        2.09558  -0.00446   0.00000  -0.01358  -0.01358   2.08200
   R16        2.89650   0.00199   0.00000   0.00679   0.00679   2.90330
   R17        2.08526  -0.00437   0.00000  -0.01307  -0.01307   2.07219
   R18        2.08836  -0.00450   0.00000  -0.01353  -0.01353   2.07484
   R19        2.08530  -0.00447   0.00000  -0.01338  -0.01338   2.07192
    A1        1.88204  -0.00056   0.00000  -0.00383  -0.00383   1.87821
    A2        1.88297  -0.00055   0.00000  -0.00399  -0.00399   1.87898
    A3        1.94833   0.00013   0.00000   0.00028   0.00028   1.94861
    A4        1.87816  -0.00071   0.00000  -0.00342  -0.00344   1.87472
    A5        1.93375   0.00083   0.00000   0.00547   0.00546   1.93920
    A6        1.93593   0.00076   0.00000   0.00491   0.00490   1.94083
    A7        1.87855  -0.00059   0.00000  -0.00430  -0.00430   1.87426
    A8        1.88459  -0.00081   0.00000  -0.00475  -0.00476   1.87983
    A9        1.95813   0.00038   0.00000   0.00215   0.00215   1.96027
   A10        1.88044  -0.00087   0.00000  -0.00501  -0.00503   1.87541
   A11        1.93461   0.00060   0.00000   0.00359   0.00358   1.93819
   A12        1.92483   0.00116   0.00000   0.00755   0.00754   1.93236
   A13        1.90604  -0.00060   0.00000  -0.00283  -0.00285   1.90319
   A14        1.91356  -0.00073   0.00000  -0.00375  -0.00378   1.90978
   A15        1.95951   0.00181   0.00000   0.01012   0.01011   1.96962
   A16        1.85756   0.00004   0.00000  -0.00620  -0.00621   1.85135
   A17        1.92030  -0.00039   0.00000   0.00009   0.00009   1.92039
   A18        1.90408  -0.00023   0.00000   0.00167   0.00167   1.90576
   A19        1.90776  -0.00065   0.00000  -0.00055  -0.00061   1.90715
   A20        2.00924   0.00222   0.00000   0.01217   0.01215   2.02139
   A21        1.89474  -0.00073   0.00000  -0.00463  -0.00463   1.89011
   A22        1.89835  -0.00044   0.00000   0.00173   0.00169   1.90004
   A23        1.85251   0.00006   0.00000  -0.00716  -0.00717   1.84535
   A24        1.89489  -0.00062   0.00000  -0.00315  -0.00313   1.89176
   A25        1.95688   0.00104   0.00000   0.01188   0.01184   1.96872
   A26        1.88822  -0.00031   0.00000  -0.00641  -0.00639   1.88183
   A27        1.92524  -0.00031   0.00000   0.00245   0.00234   1.92758
   A28        1.87951  -0.00032   0.00000  -0.00492  -0.00488   1.87463
   A29        1.92480  -0.00002   0.00000   0.00459   0.00451   1.92931
   A30        1.88692  -0.00011   0.00000  -0.00880  -0.00879   1.87812
   A31        1.94302   0.00048   0.00000   0.00278   0.00277   1.94579
   A32        1.92600   0.00123   0.00000   0.00816   0.00814   1.93414
   A33        1.94303   0.00045   0.00000   0.00245   0.00245   1.94548
   A34        1.88197  -0.00083   0.00000  -0.00455  -0.00456   1.87741
   A35        1.88603  -0.00061   0.00000  -0.00478  -0.00478   1.88125
   A36        1.88144  -0.00083   0.00000  -0.00477  -0.00478   1.87666
    D1       -0.99948   0.00032   0.00000   0.00478   0.00477  -0.99471
    D2        1.02953  -0.00039   0.00000  -0.00640  -0.00639   1.02314
    D3       -3.13424   0.00003   0.00000  -0.00014  -0.00014  -3.13437
    D4        1.09839   0.00027   0.00000   0.00382   0.00381   1.10220
    D5        3.12741  -0.00044   0.00000  -0.00736  -0.00735   3.12005
    D6       -1.03636  -0.00003   0.00000  -0.00109  -0.00110  -1.03746
    D7       -3.10002   0.00041   0.00000   0.00631   0.00631  -3.09372
    D8       -1.07100  -0.00030   0.00000  -0.00487  -0.00486  -1.07586
    D9        1.04841   0.00011   0.00000   0.00140   0.00140   1.04981
   D10        1.08614  -0.00013   0.00000  -0.00963  -0.00965   1.07649
   D11       -0.98391  -0.00015   0.00000  -0.00653  -0.00652  -0.99043
   D12       -3.04457   0.00035   0.00000   0.00653   0.00654  -3.03803
   D13       -3.09641  -0.00022   0.00000  -0.01115  -0.01117  -3.10758
   D14        1.11673  -0.00023   0.00000  -0.00805  -0.00805   1.10868
   D15       -0.94392   0.00026   0.00000   0.00500   0.00501  -0.93891
   D16       -1.01541  -0.00017   0.00000  -0.01025  -0.01027  -1.02568
   D17       -3.08546  -0.00018   0.00000  -0.00715  -0.00714  -3.09260
   D18        1.13707   0.00031   0.00000   0.00591   0.00592   1.14299
   D19        1.09633  -0.00040   0.00000  -0.01396  -0.01396   1.08237
   D20       -3.04471   0.00011   0.00000  -0.00338  -0.00337  -3.04808
   D21       -0.91714   0.00027   0.00000  -0.00263  -0.00264  -0.91978
   D22       -1.03032  -0.00060   0.00000  -0.01732  -0.01733  -1.04765
   D23        1.11182  -0.00008   0.00000  -0.00674  -0.00674   1.10509
   D24       -3.04379   0.00008   0.00000  -0.00599  -0.00601  -3.04979
   D25       -3.06202  -0.00029   0.00000  -0.01087  -0.01086  -3.07288
   D26       -0.91988   0.00023   0.00000  -0.00028  -0.00027  -0.92015
   D27        1.20769   0.00039   0.00000   0.00046   0.00046   1.20816
   D28       -1.06995  -0.00014   0.00000  -0.03365  -0.03364  -1.10359
   D29        1.00523  -0.00013   0.00000  -0.03768  -0.03770   0.96753
   D30        3.06050  -0.00046   0.00000  -0.04859  -0.04862   3.01188
   D31        1.07721   0.00024   0.00000  -0.02438  -0.02434   1.05287
   D32       -3.13079   0.00026   0.00000  -0.02841  -0.02840   3.12399
   D33       -1.07552  -0.00007   0.00000  -0.03932  -0.03933  -1.11485
   D34        3.08574  -0.00025   0.00000  -0.03359  -0.03357   3.05217
   D35       -1.12226  -0.00023   0.00000  -0.03763  -0.03763  -1.15989
   D36        0.93301  -0.00056   0.00000  -0.04854  -0.04856   0.88445
   D37        3.11883  -0.00064   0.00000  -0.01021  -0.01021   3.10862
   D38       -1.07527  -0.00055   0.00000  -0.00871  -0.00871  -1.08398
   D39        1.01316  -0.00050   0.00000  -0.00771  -0.00770   1.00546
   D40       -0.99332   0.00045   0.00000   0.00989   0.00988  -0.98344
   D41        1.09576   0.00054   0.00000   0.01138   0.01138   1.10714
   D42       -3.09900   0.00059   0.00000   0.01239   0.01239  -3.08661
   D43        1.05738  -0.00002   0.00000   0.00137   0.00137   1.05874
   D44       -3.13672   0.00007   0.00000   0.00287   0.00287  -3.13386
   D45       -1.04830   0.00012   0.00000   0.00387   0.00387  -1.04442
         Item               Value     Threshold  Converged?
 Maximum Force            0.004786     0.000450     NO 
 RMS     Force            0.001822     0.000300     NO 
 Maximum Displacement     0.088080     0.001800     NO 
 RMS     Displacement     0.029195     0.001200     NO 
 Predicted change in Energy=-6.141010D-04
 GradGradGradGradGradGradGradGradGradGradGradGradGradGradGradGradGradGrad

                          Input orientation:                          
 ---------------------------------------------------------------------
 Center     Atomic      Atomic             Coordinates (Angstroms)
 Number     Number       Type             X           Y           Z
 ---------------------------------------------------------------------
      1          6           0        2.849681   -0.235965    0.132672
      2          1           0        3.690569    0.388361   -0.190086
      3          1           0        2.914281   -0.342198    1.222638
      4          1           0        2.988965   -1.232964   -0.303171
      5          6           0       -1.455097    1.385329    0.208028
      6          1           0       -0.756108    2.162123   -0.118257
      7          1           0       -2.454965    1.680443   -0.131961
      8          1           0       -1.466925    1.386513    1.306341
      9          6           0        1.504096    0.368251   -0.284282
     10          1           0        1.422970    1.381456    0.129379
     11          1           0        1.477755    0.482761   -1.377817
     12          6           0        0.305105   -0.480189    0.163442
     13          1           0        0.290243   -0.536706    1.263449
     14          6           0       -1.076585   -0.003963   -0.330216
     15          1           0       -1.029447    0.061488   -1.429005
     16          6           0       -2.160749   -1.031887    0.028061
     17          1           0       -1.923924   -2.023070   -0.376794
     18          1           0       -2.257779   -1.133231    1.117015
     19          1           0       -3.140508   -0.735084   -0.364499
     20          1           0        0.462067   -1.511619   -0.186166
 ---------------------------------------------------------------------
                    Distance matrix (angstroms):
                    1          2          3          4          5
     1  C    0.000000
     2  H    1.095923   0.000000
     3  H    1.097035   1.769783   0.000000
     4  H    1.096980   1.770235   1.768371   0.000000
     5  C    4.600586   5.256455   4.806792   5.183288   0.000000
     6  H    4.337685   4.787936   4.641269   5.058299   1.094741
     7  H    5.646408   6.280163   5.895322   6.176863   1.096550
     8  H    4.758468   5.462174   4.710670   5.413607   1.098377
     9  C    1.532816   2.188593   2.182697   2.183823   3.167593
    10  H    2.156749   2.496057   2.527886   3.078089   2.879144
    11  H    2.163406   2.513198   3.083267   2.526329   3.454151
    12  C    2.556454   3.512936   2.819350   2.826216   2.565241
    13  H    2.814218   3.811920   2.631554   3.197213   2.802560
    14  C    3.960260   4.785323   4.295669   4.247337   1.537241
    15  H    4.192248   4.890840   4.769399   4.369296   2.147931
    16  C    5.074331   6.025165   5.259145   5.164271   2.524533
    17  H    5.122558   6.113296   5.365793   4.976561   3.489842
    18  H    5.278273   6.277467   5.233268   5.436469   2.795300
    19  H    6.031472   6.925038   6.271669   6.149966   2.768492
    20  H    2.725738   3.746086   3.060331   2.544907   3.496172
                    6          7          8          9         10
     6  H    0.000000
     7  H    1.765877   0.000000
     8  H    1.770963   1.769557   0.000000
     9  C    2.890340   4.173634   3.520498   0.000000
    10  H    2.327906   3.898214   3.120377   1.097397   0.000000
    11  H    3.065435   4.295682   4.085659   1.099830   1.755646
    12  C    2.861354   3.517611   2.816183   1.535541   2.171751
    13  H    3.207435   3.794613   2.605427   2.165146   2.499706
    14  C    2.199900   2.185511   2.182683   2.607790   2.894545
    15  H    2.491072   2.517029   3.070699   2.797023   3.191430
    16  C    3.492296   2.732930   2.822065   3.935611   4.321751
    17  H    4.352755   3.749394   3.829758   4.180705   4.800906
    18  H    3.826261   3.084735   2.647717   4.285999   4.565850
    19  H    3.760294   2.521669   3.177068   4.774530   5.054600
    20  H    3.871040   4.324498   3.787843   2.151596   3.064765
                   11         12         13         14         15
    11  H    0.000000
    12  C    2.162836   0.000000
    13  H    3.070145   1.101559   0.000000
    14  C    2.803395   1.542582   2.166057   0.000000
    15  H    2.542863   2.147168   3.057568   1.101745   0.000000
    16  C    4.184419   2.530442   2.789041   1.536360   2.144377
    17  H    4.341964   2.764219   3.130848   2.190193   2.500523
    18  H    4.773870   2.811431   2.621011   2.182875   3.068936
    19  H    4.882449   3.495132   3.802581   2.189861   2.494850
    20  H    2.535588   1.100323   1.755381   2.158988   2.498786
                   16         17         18         19         20
    16  C    0.000000
    17  H    1.096557   0.000000
    18  H    1.097956   1.770519   0.000000
    19  H    1.096414   1.771760   1.769920   0.000000
    20  H    2.674921   2.447626   3.039576   3.689629   0.000000
 Stoichiometry    C6H14
 Framework group  C1[X(C6H14)]
 Deg. of freedom    54
 Full point group                 C1      NOp   1
 Largest Abelian subgroup         C1      NOp   1
 Largest concise Abelian subgroup C1      NOp   1
                         Standard orientation:                         
 ---------------------------------------------------------------------
 Center     Atomic      Atomic             Coordinates (Angstroms)
 Number     Number       Type             X           Y           Z
 ---------------------------------------------------------------------
      1          6           0        2.850463   -0.218084    0.139464
      2          1           0        3.688225    0.408302   -0.187404
      3          1           0        2.913382   -0.313680    1.230514
      4          1           0        2.996739   -1.218264   -0.286692
      5          6           0       -1.464248    1.377548    0.190629
      6          1           0       -0.769301    2.155494   -0.141494
      7          1           0       -2.465164    1.663349   -0.154197
      8          1           0       -1.478426    1.388974    1.288855
      9          6           0        1.502121    0.373968   -0.285947
     10          1           0        1.413951    1.390498    0.117998
     11          1           0        1.477418    0.478040   -1.380564
     12          6           0        0.307360   -0.477531    0.167244
     13          1           0        0.290494   -0.523805    1.267701
     14          6           0       -1.076145   -0.014402   -0.333739
     15          1           0       -1.027060    0.041013   -1.432994
     16          6           0       -2.154798   -1.045513    0.031936
     17          1           0       -1.911085   -2.038991   -0.363087
     18          1           0       -2.253534   -1.137216    1.121591
     19          1           0       -3.135504   -0.758394   -0.365432
     20          1           0        0.471339   -1.511222   -0.172321
 ---------------------------------------------------------------------
 Rotational constants (GHZ):      6.5830370      1.6875757      1.4502639
 Standard basis: 6-31G(d) (6D, 7F)
 There are   118 symmetry adapted basis functions of A   symmetry.
 Integral buffers will be    131072 words long.
 Raffenetti 2 integral format.
 Two-electron integral symmetry is turned on.
   118 basis functions,   224 primitive gaussians,   118 cartesian basis functions
    25 alpha electrons       25 beta electrons
       nuclear repulsion energy       252.3903838943 Hartrees.
 NAtoms=   20 NActive=   20 NUniq=   20 SFac= 1.00D+00 NAtFMM=   50 NAOKFM=F Big=F
 One-electron integrals computed using PRISM.
 NBasis=   118 RedAO= T  NBF=   118
 NBsUse=   118 1.00D-06 NBFU=   118
 Initial guess read from the read-write file.
 B after Tr=     0.000000    0.000000    0.000000
         Rot=    1.000000    0.000000    0.000000    0.000000 Ang=   0.00 deg.
 Initial guess orbital symmetries:
       Occupied  (A) (A) (A) (A) (A) (A) (A) (A) (A) (A) (A) (A)
                 (A) (A) (A) (A) (A) (A) (A) (A) (A) (A) (A) (A)
                 (A)
       Virtual   (A) (A) (A) (A) (A) (A) (A) (A) (A) (A) (A) (A)
                 (A) (A) (A) (A) (A) (A) (A) (A) (A) (A) (A) (A)
                 (A) (A) (A) (A) (A) (A) (A) (A) (A) (A) (A) (A)
                 (A) (A) (A) (A) (A) (A) (A) (A) (A) (A) (A) (A)
                 (A) (A) (A) (A) (A) (A) (A) (A) (A) (A) (A) (A)
                 (A) (A) (A) (A) (A) (A) (A) (A) (A) (A) (A) (A)
                 (A) (A) (A) (A) (A) (A) (A) (A) (A) (A) (A) (A)
                 (A) (A) (A) (A) (A) (A) (A) (A) (A)
 Harris functional with IExCor=  402 diagonalized for initial guess.
 ExpMin= 1.61D-01 ExpMax= 3.05D+03 ExpMxC= 4.57D+02 IAcc=1 IRadAn=         1 AccDes= 0.00D+00
 HarFok:  IExCor=  402 AccDes= 0.00D+00 IRadAn=         1 IDoV= 1
 ScaDFX=  1.000000  1.000000  1.000000  1.000000
 FoFCou: FMM=F IPFlag=           0 FMFlag=      100000 FMFlg1=           0
         NFxFlg=           0 DoJE=T BraDBF=F KetDBF=T FulRan=T
         Omega=  0.000000  0.000000  1.000000  0.000000  0.000000 ICntrl=     500 IOpCl=  0
         NMat0=    1 NMatS0=    1 NMatT0=    0 NMatD0=    1 NMtDS0=    0 NMtDT0=    0
         I1Cent=           4 NGrid=           0.
 Petite list used in FoFCou.
 Requested convergence on RMS density matrix=1.00D-08 within 128 cycles.
 Requested convergence on MAX density matrix=1.00D-06.
 Requested convergence on             energy=1.00D-06.
 No special actions if energy rises.
 Keep R1 ints in memory in canonical form, NReq=25818960.
 Integral accuracy reduced to 1.0D-05 until final iterations.
 Initial convergence to 1.0D-05 achieved.  Increase integral accuracy.
 SCF Done:  E(RB3LYP) =  -237.084724712     A.U. after   10 cycles
             Convg  =    0.5461D-08             -V/T =  2.0105
 Calling FoFJK, ICntrl=      2127 FMM=F ISym2X=0 I1Cent= 0 IOpClX= 0 NMat=1 NMatS=1 NMatT=0.
 ***** Axes restored to original set *****
 -------------------------------------------------------------------
 Center     Atomic                   Forces (Hartrees/Bohr)
 Number     Number              X              Y              Z
 -------------------------------------------------------------------
      1        6          -0.000307247   -0.000343532    0.000325194
      2        1          -0.000169190    0.000262057   -0.000171151
      3        1           0.000038232    0.000009547    0.000101354
      4        1           0.000005400   -0.000094878   -0.000042224
      5        6           0.000090432   -0.000360263    0.000543561
      6        1           0.000595723    0.000049742   -0.000126495
      7        1          -0.000028194   -0.000251720   -0.000222380
      8        1          -0.000022554    0.000030443    0.000024792
      9        6          -0.000518238    0.000513790   -0.000369434
     10        1          -0.000208124    0.000290369    0.000080961
     11        1           0.000078658   -0.000143858    0.000032140
     12        6          -0.000015014   -0.000568316    0.000626597
     13        1           0.000135252    0.000154679   -0.000041644
     14        6           0.000252556    0.000261025   -0.001169766
     15        1          -0.000045899    0.000135150    0.000094842
     16        6           0.000269868   -0.000165296    0.000580333
     17        1           0.000150870   -0.000003811   -0.000109855
     18        1          -0.000075759   -0.000099726    0.000088869
     19        1           0.000051410    0.000283843   -0.000110989
     20        1          -0.000278182    0.000040755   -0.000134706
 -------------------------------------------------------------------
 Cartesian Forces:  Max     0.001169766 RMS     0.000294349

 GradGradGradGradGradGradGradGradGradGradGradGradGradGradGradGradGradGrad
 Berny optimization.
 Using GEDIIS/GDIIS optimizer.
 Internal  Forces:  Max     0.001650985 RMS     0.000302610
 Search for a local minimum.
 Step number   2 out of a maximum of  110
 All quantities printed in internal units (Hartrees-Bohrs-Radians)
 Mixed Optimization -- En-DIIS/RFO-DIIS
 Update second derivatives using D2CorX and points    1    2
 DE= -5.55D-04 DEPred=-6.14D-04 R= 9.04D-01
 SS=  1.41D+00  RLast= 1.37D-01 DXNew= 5.0454D-01 4.1166D-01
 Trust test= 9.04D-01 RLast= 1.37D-01 DXMaxT set to 4.12D-01
 ITU=  1  0
 Use linear search instead of GDIIS.
     Eigenvalues ---    0.00290   0.00329   0.00333   0.00342   0.00355
     Eigenvalues ---    0.03193   0.03481   0.03488   0.04688   0.04769
     Eigenvalues ---    0.04853   0.04931   0.05346   0.05404   0.05423
     Eigenvalues ---    0.05486   0.05498   0.05516   0.08385   0.08861
     Eigenvalues ---    0.12235   0.12574   0.15723   0.16000   0.16000
     Eigenvalues ---    0.16000   0.16000   0.16000   0.16000   0.16000
     Eigenvalues ---    0.16193   0.16870   0.17159   0.21797   0.22519
     Eigenvalues ---    0.28890   0.29141   0.29206   0.29314   0.29488
     Eigenvalues ---    0.32261   0.32693   0.32799   0.32903   0.33038
     Eigenvalues ---    0.33118   0.33200   0.33262   0.33267   0.33288
     Eigenvalues ---    0.33299   0.33300   0.33380   0.34168
 RFO step:  Lambda=-6.29477957D-05 EMin= 2.90028012D-03
 Quartic linear search produced a step of -0.08008.
 Iteration  1 RMS(Cart)=  0.01633144 RMS(Int)=  0.00010257
 Iteration  2 RMS(Cart)=  0.00014401 RMS(Int)=  0.00000242
 Iteration  3 RMS(Cart)=  0.00000001 RMS(Int)=  0.00000242
 Variable       Old X    -DE/DX   Delta X   Delta X   Delta X     New X
                                 (Linear)    (Quad)   (Total)
    R1        2.07100   0.00007   0.00102  -0.00149  -0.00047   2.07053
    R2        2.07310   0.00009   0.00103  -0.00143  -0.00040   2.07269
    R3        2.07299   0.00011   0.00102  -0.00136  -0.00034   2.07265
    R4        2.89660  -0.00026  -0.00026  -0.00037  -0.00063   2.89597
    R5        2.06876   0.00046   0.00111  -0.00057   0.00054   2.06930
    R6        2.07218   0.00002   0.00107  -0.00170  -0.00063   2.07155
    R7        2.07563   0.00003   0.00111  -0.00174  -0.00063   2.07500
    R8        2.90496  -0.00054  -0.00064  -0.00066  -0.00130   2.90366
    R9        2.07378   0.00031   0.00108  -0.00091   0.00017   2.07395
   R10        2.07838  -0.00005   0.00106  -0.00187  -0.00081   2.07757
   R11        2.90175  -0.00057  -0.00055  -0.00088  -0.00143   2.90033
   R12        2.08164  -0.00005   0.00117  -0.00207  -0.00090   2.08074
   R13        2.91506  -0.00102  -0.00092  -0.00176  -0.00267   2.91239
   R14        2.07931  -0.00003   0.00112  -0.00194  -0.00082   2.07849
   R15        2.08200  -0.00009   0.00109  -0.00205  -0.00096   2.08104
   R16        2.90330  -0.00019  -0.00054   0.00030  -0.00024   2.90306
   R17        2.07219   0.00007   0.00105  -0.00153  -0.00048   2.07171
   R18        2.07484   0.00011   0.00108  -0.00148  -0.00040   2.07443
   R19        2.07192   0.00007   0.00107  -0.00156  -0.00049   2.07143
    A1        1.87821   0.00017   0.00031   0.00016   0.00047   1.87868
    A2        1.87898   0.00019   0.00032   0.00006   0.00038   1.87936
    A3        1.94861  -0.00053  -0.00002  -0.00342  -0.00344   1.94517
    A4        1.87472  -0.00002   0.00028   0.00027   0.00054   1.87526
    A5        1.93920   0.00014  -0.00044   0.00181   0.00137   1.94057
    A6        1.94083   0.00006  -0.00039   0.00117   0.00078   1.94161
    A7        1.87426   0.00041   0.00034   0.00150   0.00184   1.87610
    A8        1.87983   0.00009   0.00038  -0.00040  -0.00002   1.87981
    A9        1.96027  -0.00044  -0.00017  -0.00254  -0.00272   1.95756
   A10        1.87541   0.00015   0.00040   0.00076   0.00117   1.87658
   A11        1.93819  -0.00036  -0.00029  -0.00146  -0.00175   1.93644
   A12        1.93236   0.00020  -0.00060   0.00227   0.00167   1.93404
   A13        1.90319   0.00017   0.00023   0.00065   0.00088   1.90407
   A14        1.90978   0.00006   0.00030  -0.00033  -0.00003   1.90975
   A15        1.96962  -0.00028  -0.00081  -0.00009  -0.00090   1.96872
   A16        1.85135  -0.00002   0.00050  -0.00011   0.00039   1.85174
   A17        1.92039  -0.00001  -0.00001  -0.00054  -0.00054   1.91984
   A18        1.90576   0.00009  -0.00013   0.00041   0.00028   1.90603
   A19        1.90715   0.00032   0.00005  -0.00078  -0.00074   1.90641
   A20        2.02139  -0.00165  -0.00097  -0.00628  -0.00725   2.01413
   A21        1.89011   0.00072   0.00037   0.00391   0.00429   1.89439
   A22        1.90004   0.00057  -0.00014   0.00112   0.00097   1.90101
   A23        1.84535  -0.00017   0.00057   0.00178   0.00235   1.84770
   A24        1.89176   0.00033   0.00025   0.00097   0.00122   1.89299
   A25        1.96872  -0.00068  -0.00095  -0.00409  -0.00503   1.96369
   A26        1.88183   0.00004   0.00051  -0.00047   0.00004   1.88187
   A27        1.92758   0.00040  -0.00019   0.00127   0.00109   1.92867
   A28        1.87463   0.00024   0.00039   0.00153   0.00192   1.87654
   A29        1.92931   0.00008  -0.00036   0.00006  -0.00030   1.92901
   A30        1.87812  -0.00005   0.00070   0.00197   0.00267   1.88080
   A31        1.94579  -0.00019  -0.00022  -0.00078  -0.00100   1.94479
   A32        1.93414   0.00028  -0.00065   0.00304   0.00239   1.93654
   A33        1.94548  -0.00044  -0.00020  -0.00249  -0.00269   1.94279
   A34        1.87741   0.00002   0.00037   0.00008   0.00045   1.87786
   A35        1.88125   0.00027   0.00038   0.00024   0.00062   1.88188
   A36        1.87666   0.00009   0.00038  -0.00006   0.00032   1.87699
    D1       -0.99471  -0.00008  -0.00038  -0.00264  -0.00302  -0.99773
    D2        1.02314   0.00003   0.00051  -0.00259  -0.00208   1.02106
    D3       -3.13437   0.00000   0.00001  -0.00236  -0.00235  -3.13672
    D4        1.10220  -0.00013  -0.00031  -0.00351  -0.00381   1.09839
    D5        3.12005  -0.00002   0.00059  -0.00346  -0.00287   3.11718
    D6       -1.03746  -0.00005   0.00009  -0.00323  -0.00315  -1.04061
    D7       -3.09372  -0.00001  -0.00050  -0.00119  -0.00170  -3.09541
    D8       -1.07586   0.00010   0.00039  -0.00115  -0.00076  -1.07662
    D9        1.04981   0.00007  -0.00011  -0.00092  -0.00103   1.04878
   D10        1.07649  -0.00006   0.00077  -0.01762  -0.01685   1.05964
   D11       -0.99043   0.00002   0.00052  -0.01679  -0.01627  -1.00670
   D12       -3.03803  -0.00016  -0.00052  -0.01959  -0.02011  -3.05814
   D13       -3.10758  -0.00010   0.00089  -0.01846  -0.01757  -3.12515
   D14        1.10868  -0.00001   0.00064  -0.01763  -0.01698   1.09170
   D15       -0.93891  -0.00020  -0.00040  -0.02043  -0.02083  -0.95974
   D16       -1.02568  -0.00002   0.00082  -0.01697  -0.01615  -1.04182
   D17       -3.09260   0.00007   0.00057  -0.01613  -0.01556  -3.10816
   D18        1.14299  -0.00012  -0.00047  -0.01893  -0.01941   1.12358
   D19        1.08237   0.00013   0.00112  -0.01886  -0.01775   1.06462
   D20       -3.04808  -0.00007   0.00027  -0.02262  -0.02235  -3.07043
   D21       -0.91978  -0.00023   0.00021  -0.02266  -0.02245  -0.94223
   D22       -1.04765   0.00011   0.00139  -0.01925  -0.01787  -1.06551
   D23        1.10509  -0.00009   0.00054  -0.02301  -0.02247   1.08262
   D24       -3.04979  -0.00024   0.00048  -0.02305  -0.02257  -3.07237
   D25       -3.07288   0.00008   0.00087  -0.01905  -0.01818  -3.09106
   D26       -0.92015  -0.00012   0.00002  -0.02281  -0.02279  -0.94293
   D27        1.20816  -0.00027  -0.00004  -0.02285  -0.02289   1.18527
   D28       -1.10359   0.00024   0.00269   0.00060   0.00330  -1.10029
   D29        0.96753   0.00004   0.00302  -0.00138   0.00164   0.96918
   D30        3.01188   0.00017   0.00389   0.00191   0.00580   3.01768
   D31        1.05287  -0.00009   0.00195  -0.00412  -0.00217   1.05070
   D32        3.12399  -0.00029   0.00227  -0.00610  -0.00382   3.12017
   D33       -1.11485  -0.00016   0.00315  -0.00281   0.00034  -1.11451
   D34        3.05217   0.00018   0.00269  -0.00092   0.00177   3.05394
   D35       -1.15989  -0.00002   0.00301  -0.00290   0.00011  -1.15978
   D36        0.88445   0.00011   0.00389   0.00038   0.00427   0.88873
   D37        3.10862   0.00018   0.00082  -0.00396  -0.00314   3.10549
   D38       -1.08398   0.00026   0.00070  -0.00233  -0.00163  -1.08561
   D39        1.00546   0.00027   0.00062  -0.00202  -0.00140   1.00405
   D40       -0.98344  -0.00036  -0.00079  -0.00827  -0.00906  -0.99250
   D41        1.10714  -0.00027  -0.00091  -0.00664  -0.00755   1.09959
   D42       -3.08661  -0.00026  -0.00099  -0.00633  -0.00732  -3.09393
   D43        1.05874  -0.00005  -0.00011  -0.00525  -0.00536   1.05338
   D44       -3.13386   0.00003  -0.00023  -0.00363  -0.00386  -3.13771
   D45       -1.04442   0.00004  -0.00031  -0.00331  -0.00363  -1.04805
         Item               Value     Threshold  Converged?
 Maximum Force            0.001651     0.000450     NO 
 RMS     Force            0.000303     0.000300     NO 
 Maximum Displacement     0.057359     0.001800     NO 
 RMS     Displacement     0.016357     0.001200     NO 
 Predicted change in Energy=-3.581468D-05
 GradGradGradGradGradGradGradGradGradGradGradGradGradGradGradGradGradGrad

                          Input orientation:                          
 ---------------------------------------------------------------------
 Center     Atomic      Atomic             Coordinates (Angstroms)
 Number     Number       Type             X           Y           Z
 ---------------------------------------------------------------------
      1          6           0        2.844223   -0.224052    0.140047
      2          1           0        3.679561    0.404547   -0.187945
      3          1           0        2.904419   -0.313895    1.231526
      4          1           0        2.995482   -1.225401   -0.281127
      5          6           0       -1.440745    1.381397    0.214368
      6          1           0       -0.725755    2.149263   -0.099082
      7          1           0       -2.432284    1.692226   -0.134812
      8          1           0       -1.463926    1.374885    1.312149
      9          6           0        1.496871    0.363195   -0.293870
     10          1           0        1.402890    1.380582    0.106837
     11          1           0        1.477422    0.463706   -1.388493
     12          6           0        0.303420   -0.490495    0.156084
     13          1           0        0.292864   -0.548182    1.255601
     14          6           0       -1.076274   -0.007617   -0.332254
     15          1           0       -1.033167    0.062969   -1.430382
     16          6           0       -2.163897   -1.030547    0.029268
     17          1           0       -1.936842   -2.019857   -0.384969
     18          1           0       -2.254210   -1.139397    1.117862
     19          1           0       -3.143535   -0.722917   -0.354437
     20          1           0        0.457125   -1.520564   -0.197599
 ---------------------------------------------------------------------
                    Distance matrix (angstroms):
                    1          2          3          4          5
     1  C    0.000000
     2  H    1.095676   0.000000
     3  H    1.096823   1.769717   0.000000
     4  H    1.096798   1.770135   1.768404   0.000000
     5  C    4.576455   5.228157   4.773791   5.169238   0.000000
     6  H    4.293548   4.739065   4.584303   5.026838   1.095025
     7  H    5.620427   6.246246   5.862747   6.163975   1.096216
     8  H    4.742423   5.444933   4.684114   5.402438   1.098045
     9  C    1.532482   2.185651   2.183226   2.183949   3.150337
    10  H    2.157173   2.494548   2.527996   3.078637   2.845667
    11  H    2.162774   2.508831   3.083097   2.526628   3.453551
    12  C    2.554786   3.509671   2.820100   2.824613   2.559197
    13  H    2.803383   3.802793   2.622154   3.181871   2.795146
    14  C    3.954771   4.775843   4.287789   4.250272   1.536553
    15  H    4.193182   4.885707   4.767846   4.383000   2.146992
    16  C    5.073852   6.021020   5.258027   5.172379   2.524815
    17  H    5.134115   6.120501   5.381558   4.996975   3.489104
    18  H    5.271432   6.268854   5.225498   5.433584   2.798648
    19  H    6.028816   6.917625   6.265806   6.159983   2.766075
    20  H    2.737368   3.753697   3.080210   2.556825   3.491849
                    6          7          8          9         10
     6  H    0.000000
     7  H    1.767032   0.000000
     8  H    1.770912   1.769779   0.000000
     9  C    2.857979   4.150889   3.516977   0.000000
    10  H    2.272532   3.855396   3.109895   1.097485   0.000000
    11  H    3.059031   4.285648   4.095759   1.099400   1.755628
    12  C    2.844756   3.511832   2.817737   1.534787   2.170758
    13  H    3.185743   3.791979   2.605321   2.163585   2.504385
    14  C    2.197582   2.183394   2.183036   2.600009   2.875092
    15  H    2.493889   2.508088   3.070529   2.789782   3.167573
    16  C    3.492266   2.740884   2.814578   3.930414   4.305988
    17  H    4.350865   3.753345   3.824674   4.180624   4.791520
    18  H    3.825234   3.101450   2.642709   4.280347   4.554870
    19  H    3.763015   2.527257   3.162178   4.766201   5.030652
    20  H    3.857012   4.321417   3.788588   2.153807   3.066561
                   11         12         13         14         15
    11  H    0.000000
    12  C    2.162059   0.000000
    13  H    3.068930   1.101081   0.000000
    14  C    2.803418   1.541168   2.165187   0.000000
    15  H    2.542715   2.147011   3.057183   1.101238   0.000000
    16  C    4.183544   2.528911   2.787875   1.536232   2.145904
    17  H    4.339624   2.765945   3.135105   2.189170   2.499536
    18  H    4.772508   2.808480   2.618414   2.184329   3.070859
    19  H    4.881658   3.492298   3.798893   2.187627   2.495782
    20  H    2.529142   1.099890   1.756218   2.158345   2.499660
                   16         17         18         19         20
    16  C    0.000000
    17  H    1.096302   0.000000
    18  H    1.097744   1.770433   0.000000
    19  H    1.096155   1.771748   1.769750   0.000000
    20  H    2.676069   2.452647   3.037608   3.691286   0.000000
 Stoichiometry    C6H14
 Framework group  C1[X(C6H14)]
 Deg. of freedom    54
 Full point group                 C1      NOp   1
 Largest Abelian subgroup         C1      NOp   1
 Largest concise Abelian subgroup C1      NOp   1
                         Standard orientation:                         
 ---------------------------------------------------------------------
 Center     Atomic      Atomic             Coordinates (Angstroms)
 Number     Number       Type             X           Y           Z
 ---------------------------------------------------------------------
      1          6           0        2.844389   -0.215725    0.147610
      2          1           0        3.678997    0.410855   -0.186054
      3          1           0        2.902505   -0.292545    1.240195
      4          1           0        2.998776   -1.221627   -0.261401
      5          6           0       -1.444319    1.380761    0.194129
      6          1           0       -0.730401    2.146495   -0.126887
      7          1           0       -2.435821    1.685196   -0.160742
      8          1           0       -1.469780    1.387151    1.291860
      9          6           0        1.496631    0.363302   -0.295989
     10          1           0        1.399530    1.385130    0.092485
     11          1           0        1.479245    0.450845   -1.391761
     12          6           0        0.304162   -0.487726    0.161547
     13          1           0        0.291437   -0.532457    1.261645
     14          6           0       -1.075588   -0.013776   -0.335304
     15          1           0       -1.030344    0.043945   -1.434097
     16          6           0       -2.161666   -1.034835    0.036023
     17          1           0       -1.931524   -2.028445   -0.366037
     18          1           0       -2.254009   -1.131036    1.125637
     19          1           0       -3.141187   -0.733978   -0.353308
     20          1           0        0.460919   -1.521544   -0.179633
 ---------------------------------------------------------------------
 Rotational constants (GHZ):      6.5893377      1.6939021      1.4564321
 Standard basis: 6-31G(d) (6D, 7F)
 There are   118 symmetry adapted basis functions of A   symmetry.
 Integral buffers will be    131072 words long.
 Raffenetti 2 integral format.
 Two-electron integral symmetry is turned on.
   118 basis functions,   224 primitive gaussians,   118 cartesian basis functions
    25 alpha electrons       25 beta electrons
       nuclear repulsion energy       252.6477170173 Hartrees.
 NAtoms=   20 NActive=   20 NUniq=   20 SFac= 1.00D+00 NAtFMM=   50 NAOKFM=F Big=F
 One-electron integrals computed using PRISM.
 NBasis=   118 RedAO= T  NBF=   118
 NBsUse=   118 1.00D-06 NBFU=   118
 Initial guess read from the read-write file.
 B after Tr=     0.000000    0.000000    0.000000
         Rot=    1.000000    0.000000    0.000000    0.000000 Ang=   0.00 deg.
 Initial guess orbital symmetries:
       Occupied  (A) (A) (A) (A) (A) (A) (A) (A) (A) (A) (A) (A)
                 (A) (A) (A) (A) (A) (A) (A) (A) (A) (A) (A) (A)
                 (A)
       Virtual   (A) (A) (A) (A) (A) (A) (A) (A) (A) (A) (A) (A)
                 (A) (A) (A) (A) (A) (A) (A) (A) (A) (A) (A) (A)
                 (A) (A) (A) (A) (A) (A) (A) (A) (A) (A) (A) (A)
                 (A) (A) (A) (A) (A) (A) (A) (A) (A) (A) (A) (A)
                 (A) (A) (A) (A) (A) (A) (A) (A) (A) (A) (A) (A)
                 (A) (A) (A) (A) (A) (A) (A) (A) (A) (A) (A) (A)
                 (A) (A) (A) (A) (A) (A) (A) (A) (A) (A) (A) (A)
                 (A) (A) (A) (A) (A) (A) (A) (A) (A)
 Harris functional with IExCor=  402 diagonalized for initial guess.
 ExpMin= 1.61D-01 ExpMax= 3.05D+03 ExpMxC= 4.57D+02 IAcc=1 IRadAn=         1 AccDes= 0.00D+00
 HarFok:  IExCor=  402 AccDes= 0.00D+00 IRadAn=         1 IDoV= 1
 ScaDFX=  1.000000  1.000000  1.000000  1.000000
 FoFCou: FMM=F IPFlag=           0 FMFlag=      100000 FMFlg1=           0
         NFxFlg=           0 DoJE=T BraDBF=F KetDBF=T FulRan=T
         Omega=  0.000000  0.000000  1.000000  0.000000  0.000000 ICntrl=     500 IOpCl=  0
         NMat0=    1 NMatS0=    1 NMatT0=    0 NMatD0=    1 NMtDS0=    0 NMtDT0=    0
         I1Cent=           4 NGrid=           0.
 Petite list used in FoFCou.
 Requested convergence on RMS density matrix=1.00D-08 within 128 cycles.
 Requested convergence on MAX density matrix=1.00D-06.
 Requested convergence on             energy=1.00D-06.
 No special actions if energy rises.
 Keep R1 ints in memory in canonical form, NReq=25818953.
 Integral accuracy reduced to 1.0D-05 until final iterations.
 Initial convergence to 1.0D-05 achieved.  Increase integral accuracy.
 SCF Done:  E(RB3LYP) =  -237.084752198     A.U. after    9 cycles
             Convg  =    0.4236D-08             -V/T =  2.0104
 Calling FoFJK, ICntrl=      2127 FMM=F ISym2X=0 I1Cent= 0 IOpClX= 0 NMat=1 NMatS=1 NMatT=0.
 ***** Axes restored to original set *****
 -------------------------------------------------------------------
 Center     Atomic                   Forces (Hartrees/Bohr)
 Number     Number              X              Y              Z
 -------------------------------------------------------------------
      1        6          -0.000059920    0.000068853   -0.000012330
      2        1           0.000212217    0.000164894   -0.000099698
      3        1          -0.000033306    0.000020393    0.000200065
      4        1          -0.000014911   -0.000182159   -0.000084884
      5        6          -0.000100009   -0.000052835   -0.000035068
      6        1           0.000018216    0.000079805   -0.000077038
      7        1          -0.000232953    0.000070650   -0.000112966
      8        1          -0.000002023   -0.000067602    0.000192102
      9        6           0.000030471   -0.000170107    0.000096636
     10        1           0.000047272    0.000063768    0.000096946
     11        1           0.000045948   -0.000061006   -0.000211070
     12        6           0.000034225    0.000120715    0.000075290
     13        1           0.000005008    0.000013011    0.000201825
     14        6           0.000042228   -0.000000269    0.000183177
     15        1          -0.000095014   -0.000023926   -0.000150625
     16        6           0.000088497    0.000170466   -0.000079664
     17        1           0.000114710   -0.000200084   -0.000137515
     18        1           0.000071087    0.000044100    0.000174343
     19        1          -0.000261332    0.000081401   -0.000107881
     20        1           0.000089588   -0.000140068   -0.000111648
 -------------------------------------------------------------------
 Cartesian Forces:  Max     0.000261332 RMS     0.000117446

 GradGradGradGradGradGradGradGradGradGradGradGradGradGradGradGradGradGrad
 Berny optimization.
 Using GEDIIS/GDIIS optimizer.
 Internal  Forces:  Max     0.000394302 RMS     0.000115076
 Search for a local minimum.
 Step number   3 out of a maximum of  110
 All quantities printed in internal units (Hartrees-Bohrs-Radians)
 Mixed Optimization -- En-DIIS/RFO-DIIS
 Swaping is turned off.
 Update second derivatives using D2CorX and points    1    2    3
 DE= -2.75D-05 DEPred=-3.58D-05 R= 7.67D-01
 SS=  1.41D+00  RLast= 8.65D-02 DXNew= 6.9233D-01 2.5948D-01
 Trust test= 7.67D-01 RLast= 8.65D-02 DXMaxT set to 4.12D-01
 ITU=  1  1  0
     Eigenvalues ---    0.00251   0.00332   0.00335   0.00352   0.00371
     Eigenvalues ---    0.03284   0.03483   0.03528   0.04693   0.04814
     Eigenvalues ---    0.04890   0.04965   0.05365   0.05431   0.05441
     Eigenvalues ---    0.05480   0.05496   0.05519   0.08385   0.08800
[...]
 01348,0.00002711,-0.07808358,0.02417651,-0.07800756,0.00974496,-0.0035
 7730,0.00308525,0.08588965,-0.02435817,0.07998440,0.00000607,-0.000006
 90,-0.00001090,0.00000706,0.00000588,-0.00000816,-0.00004622,0.0000281
 0,-0.00003501,0.00000477,0.00000153,-0.00000450,-0.05021854,-0.0008265
 5,0.00580057,-0.00005387,0.00038753,0.02304376,0.00210973,0.00049766,-
 0.03113800,0.04848933,0.00004722,0.00005267,0.00002212,0.00001194,-0.0
 0000854,0.00000642,0.00001220,0.00000834,-0.00000412,-0.00001196,0.000
 01115,-0.00000947,-0.00065216,-0.04936783,0.00732621,0.00123750,-0.000
 22723,0.02341181,-0.00112844,-0.00107944,0.00874899,-0.00105403,0.0525
 9253,0.00000009,0.00003195,-0.00003898,0.00003652,-0.00000292,0.000001
 13,0.00004341,-0.00003143,0.00004620,0.00000745,-0.00000283,0.00001194
 ,0.00564342,0.00738287,-0.30515171,-0.00022444,0.00046900,-0.00830516,
 0.00044012,0.00064814,-0.00991510,-0.00706489,-0.00560031,0.33371408,-
 0.16513660,0.04016015,-0.02922206,-0.02124003,0.01191221,-0.00850296,-
 0.00163618,0.00060752,-0.00087167,-0.00425991,0.00196652,-0.00131926,0
 .00041036,0.00032925,-0.00021420,-0.00112663,-0.00015894,0.00031909,0.
 00020718,-0.00067184,-0.00005606,-0.00018601,0.00003963,0.00020630,0.4
 5545967,0.03932837,-0.09898711,0.01340093,-0.01783685,0.00864723,-0.00
 726559,0.00124991,-0.00133363,0.00082131,0.02815266,-0.01243955,0.0106
 2466,0.00075217,0.00175540,-0.00004947,0.00040792,-0.00077502,0.000478
 81,-0.00010298,-0.00064742,-0.00010190,0.00000201,0.00001086,-0.000171
 01,-0.01225415,0.55529757,-0.02902469,0.01348412,-0.09145081,0.0100819
 6,-0.00563093,0.00274191,-0.03146570,0.01439097,-0.00936229,0.01234171
 ,-0.00449369,0.00408407,-0.00012085,0.00038689,-0.00047190,-0.00002085
 ,-0.00040200,0.00055761,-0.00037733,-0.00007473,0.00016919,-0.00006341
 ,0.00005423,0.00008491,0.00206864,0.02740517,0.57589406,-0.00456464,0.
 02947197,0.01147465,0.00104424,-0.00058503,0.00062672,0.00130348,-0.00
 075116,-0.00009975,-0.00537453,0.00252729,-0.00235153,-0.00098584,-0.0
 0000599,0.00017359,-0.00176089,0.00066288,-0.00012451,0.00020662,0.000
 19277,-0.00002223,-0.00001669,0.00004045,0.00007895,-0.04939045,0.0195
 1129,0.00816007,0.05969322,0.00193187,-0.01187100,-0.00453294,0.000292
 46,0.00078008,-0.00007607,-0.00036221,0.00023080,0.00040150,0.00234398
 ,0.00042755,0.00112184,0.00034911,-0.00071870,0.00026659,0.00086824,0.
 00099392,-0.00039211,0.00030578,0.00051077,0.00001373,-0.00008112,0.00
 000022,0.00004887,0.01909256,-0.26745098,-0.08612061,-0.02254811,0.292
 97689,-0.00143630,0.01032566,0.00374242,0.00057730,-0.00039050,0.00012
 224,0.00071408,0.00023617,0.00069890,-0.00201007,0.00148088,0.00047722
 ,-0.00004092,-0.00063599,0.00048776,0.00007032,0.00043650,0.00012181,0
 .00013501,0.00018633,-0.00013664,0.00009958,0.00007538,-0.00018425,0.0
 0790269,-0.08639359,-0.08685266,-0.00874540,0.09386886,0.08867321,-0.0
 0204686,0.00210316,-0.03185296,0.00109513,-0.00076103,0.00035556,-0.00
 546674,0.00290457,-0.00180999,0.00130674,-0.00020508,0.00076862,-0.000
 11003,0.00009079,-0.00009844,0.00000684,0.00009800,0.00004406,-0.00002
 805,0.00006525,-0.00003309,0.00013884,-0.00011884,-0.00015198,-0.04798
 355,0.00040455,-0.00326882,-0.00035670,-0.00030154,0.00300483,0.056726
 75,0.00094900,-0.00126131,0.01401434,-0.00031628,0.00034350,-0.0005843
 2,0.00256180,-0.00025547,0.00112373,-0.00079182,0.00031642,0.00026902,
 0.00001688,0.00001321,0.00000329,-0.00005413,-0.00003334,-0.00013205,0
 .00004239,0.00005511,0.00002647,-0.00005327,-0.00011169,0.00003100,0.0
 0038360,-0.05337152,0.01472908,-0.00079264,0.00282233,-0.03166666,0.00
 034204,0.05340815,-0.00071252,0.00051692,-0.00902094,-0.00046846,-0.00
 030014,0.00042908,-0.00179006,0.00082156,0.00120224,0.00003845,0.00047
 592,0.00065268,0.00033054,-0.00006327,0.00015448,0.00003930,-0.0000762
 4,-0.00023483,0.00009628,-0.00002215,0.00000431,-0.00017306,0.00005254
 ,0.00014401,-0.00360352,0.01500020,-0.29840483,-0.00022161,0.00008261,
 -0.01231488,0.00412308,-0.01906528,0.32576483,-0.03079009,-0.01677383,
 0.00856196,-0.00432012,0.00186038,-0.00142913,0.00208285,-0.00065652,0
 .00092174,0.00195620,-0.00116182,0.00039050,-0.00917990,0.00934990,-0.
 00096024,0.00031683,-0.00123382,0.00019482,0.00101252,-0.00043364,0.00
 003464,0.00063846,-0.00108192,-0.00078831,-0.13649535,-0.04276530,0.02
 536590,0.00218797,0.00047445,-0.00102370,-0.00164691,-0.00082216,0.000
 99214,0.45765489,0.00800046,0.00931478,-0.00554250,0.00470909,-0.00118
 864,0.00100031,0.00017579,0.00003851,-0.00000799,0.00179642,0.00046668
 ,-0.00014934,0.03017265,-0.01251912,0.00943680,-0.00051880,0.00031305,
 0.00072480,0.00115548,-0.00573950,-0.00207976,-0.00056431,0.00162829,0
 .00086137,-0.04662153,-0.11842824,0.01980314,-0.02571433,-0.01825087,0
 .01107561,-0.00158590,-0.00159622,0.00075779,-0.00916002,0.54987810,-0
 .00711356,-0.00706840,0.00407416,-0.00335011,0.00090235,-0.00046237,-0
 .00147064,-0.00045812,0.00029695,0.00061963,0.00015791,-0.00010799,0.0
 1105140,-0.00223398,0.00442475,-0.00048255,0.00037548,0.00010634,0.001
 63908,-0.00341304,-0.00079061,0.00155535,-0.00087842,0.00044435,0.0256
 6258,0.01988621,-0.09267525,-0.01036310,-0.00705017,0.00378392,0.02759
 056,0.02034973,-0.01128067,-0.00850369,0.02907229,0.56847144,0.0016054
 5,0.00009446,0.00122589,0.00027467,-0.00004683,-0.00036717,-0.00037409
 ,0.00011649,-0.00078853,-0.00008134,0.00001183,-0.00000608,0.00149006,
 -0.00125417,-0.00063862,-0.00005498,0.00012829,0.00007799,0.00011161,-
 0.00034484,0.00024114,0.00004191,0.00018698,0.00077642,-0.00178912,-0.
 00064617,0.02708148,0.00105965,0.00034768,-0.00083750,-0.00409330,-0.0
 0323362,0.00157253,-0.04858101,0.00042083,0.00236930,0.05655968,0.0009
 3310,0.00019386,-0.00025370,0.00019283,-0.00014701,-0.00008072,-0.0001
 1663,0.00035101,-0.00038145,-0.00009777,0.00003610,-0.00013260,-0.0007
 8997,0.00060485,0.00139961,0.00007334,-0.00004261,0.00004055,-0.000144
 84,0.00012070,-0.00027313,0.00015812,-0.00000692,-0.00041033,-0.001369
 65,-0.00142475,0.02110244,0.00098885,0.00074698,0.00003246,-0.00342981
 ,-0.00153879,0.00178748,0.00033996,-0.05104678,0.00634016,0.00084596,0
 .05199314,-0.00075825,-0.00018298,0.00031456,0.00011585,0.00002145,0.0
 0045855,0.00090035,-0.00020191,0.00057041,-0.00001170,0.00002227,0.000
 00891,0.00081610,-0.00073362,0.00063694,-0.00002734,0.00000357,0.00001
 285,-0.00006650,-0.00003145,0.00044497,-0.00040899,0.00080996,0.000636
 10,0.00038370,0.00050069,-0.01113787,-0.00002494,0.00041545,0.00079579
 ,0.00158395,0.00156467,0.00081685,0.00283207,0.00660187,-0.29466989,-0
 .00221802,-0.00973740,0.32365196,-0.00151043,-0.00280563,0.00123711,-0
 .00048204,0.00065162,-0.00048249,-0.00013482,-0.00006140,-0.00010481,0
 .00007474,0.00007505,0.00013997,-0.08596263,0.01989163,0.00949921,0.00
 662992,-0.02095346,-0.01017325,-0.00758832,0.02787950,0.01263209,-0.00
 147502,0.00084702,0.00073200,-0.02568047,0.00527183,-0.00663583,0.0012
 3820,0.00088688,-0.00009946,0.00171482,0.00097387,-0.00112231,-0.15015
 591,0.02978007,-0.02921097,-0.00186154,0.00090313,-0.00066619,0.469380
 47,-0.00294683,-0.00370842,0.00155513,-0.00166125,0.00079423,-0.000181
 86,0.00016835,-0.00008449,-0.00005906,-0.00004180,0.00031177,0.0002280
 8,0.02317065,-0.16169264,-0.03585053,0.00626113,-0.01899204,-0.0088219
 9,0.00154427,-0.00881032,-0.00374741,0.00010327,0.00015757,-0.00032673
 ,-0.01525991,0.00984530,-0.00838379,-0.00022365,-0.00055477,-0.0006363
 3,0.00002346,0.00048549,-0.00002069,0.02514529,-0.09064155,0.01175651,
 0.00128358,-0.00139309,0.00062108,-0.00070356,0.47702024,0.00201520,0.
 00206114,-0.00178751,0.00117206,-0.00007420,0.00069524,-0.00000490,0.0
 0001720,0.00045708,-0.00028274,0.00013112,0.00002655,0.00933559,-0.034
 67393,-0.09685693,-0.00369391,0.01013630,0.00316766,-0.00258066,0.0117
 7173,0.00388202,0.00891959,-0.03202911,-0.01390332,0.00789082,-0.00658
 296,0.00368473,-0.00050282,0.00012540,-0.00002667,0.00189384,0.0000056
 1,-0.00006589,-0.02872843,0.01133568,-0.09302034,-0.03105001,0.0118701
 3,-0.01338842,-0.00873356,-0.00857999,0.58725765,-0.00003409,0.0001748
 0,0.00005853,0.00000888,-0.00004007,0.00011622,0.00012362,-0.00006369,
 0.00026078,0.00001592,0.00000643,-0.00001522,-0.00050512,0.00002695,0.
 00834556,0.00035240,-0.00002217,-0.00057707,0.00008968,-0.00053231,0.0
 0019213,0.00025585,0.00161250,0.00061724,0.00190210,0.00024299,-0.0014
 4533,-0.00013187,-0.00006661,0.00002616,-0.00024559,-0.00026858,0.0009
 6606,-0.00195906,0.00224868,-0.03154367,-0.00531932,0.00199057,-0.0024
 1376,-0.04941926,-0.00007326,0.00930076,0.05815531,-0.00004429,-0.0000
 3942,-0.00000499,0.00000888,0.00000878,-0.00004048,-0.00006284,-0.0000
 2891,-0.00002845,0.00001623,-0.00003106,0.00001517,0.00186501,-0.00054
 914,-0.03277025,-0.00059400,0.00133396,0.00057437,-0.00004352,0.001179
 13,0.00075229,0.00182942,-0.00564759,-0.00289101,-0.00059774,0.0000365
 0,-0.00052401,0.00003353,0.00007076,-0.00006161,0.00003490,0.00024463,
 -0.00020595,0.00061395,-0.00087887,0.01128620,0.00199369,-0.00019059,0
 .00084112,-0.00023828,-0.05004071,0.01637349,0.00063042,0.05891028,-0.
 00016886,-0.00004482,0.00056512,-0.00011115,-0.00000096,0.00000853,0.0
 0030853,-0.00005823,0.00009858,0.00001628,0.00001575,-0.00004146,0.000
 69364,-0.00030889,-0.01291808,-0.00040374,-0.00032491,0.00057767,0.000
 50290,-0.00013313,0.00051347,0.00071683,-0.00254437,0.00059424,0.00113
 534,0.00010419,0.00007649,-0.00001656,0.00003205,0.00009491,-0.0009230
 3,-0.00047389,0.00088180,-0.00098501,0.00107641,-0.01312949,-0.0021866
 2,0.00123658,0.00049873,0.00968658,0.01612523,-0.29143020,-0.01052433,
 -0.01782767,0.31882655,-0.00074631,-0.00124567,0.00066139,-0.00053989,
 0.00022356,-0.00013586,0.00002733,-0.00000156,-0.00006632,0.00001131,0
 .00005559,0.00003760,0.00569525,0.00098031,-0.00270271,-0.00010238,0.0
 0349769,0.00095473,0.00055413,0.00157160,0.00001366,0.00002941,0.00052
 841,0.00017820,-0.00348217,0.00288504,-0.00256432,-0.00001890,-0.00022
 288,-0.00015675,0.00002042,0.00009821,0.00013386,-0.03129474,-0.020194
 45,0.00680139,0.00166397,-0.00036972,0.00082684,-0.13016793,-0.0494735
 3,0.01856473,-0.00272241,-0.00249974,0.00085596,0.52761728,0.00068815,
 0.00097611,-0.00031387,0.00047757,-0.00014348,0.00008281,-0.00002669,-
 0.00001946,0.00004672,-0.00004801,-0.00005539,-0.00004416,-0.02258702,
 -0.03003727,0.00600512,0.00106639,-0.00503431,-0.00217944,-0.00115521,
 0.00126901,0.00048987,-0.00020046,0.00189368,0.00092281,0.00280537,-0.
 00169872,0.00134901,0.00006466,0.00013017,0.00012477,-0.00016645,-0.00
 008462,-0.00008895,0.00326530,0.00761731,-0.00368047,0.00053427,-0.000
 02711,0.00014908,-0.04902979,-0.12464071,0.01784169,-0.00332430,-0.003
 21843,0.00113055,-0.05329099,0.53366067,-0.00055198,-0.00047044,0.0007
 4423,-0.00033577,0.00010312,-0.00008557,0.00010776,-0.00005352,-0.0000
 1952,0.00001496,0.00003191,-0.00001108,-0.00909922,-0.00872528,0.00369
 579,0.00011035,-0.00345901,-0.00067237,-0.00013217,0.00077803,0.000161
 67,-0.00087389,-0.00104406,0.00043402,-0.00145410,0.00120158,-0.001707
 65,0.00012144,-0.00004476,0.00004258,-0.00007282,-0.00003958,0.0005489
 2,-0.00834697,-0.00807429,0.00345688,-0.00103202,-0.00061423,0.0001346
 3,0.01875676,0.01816216,-0.08816343,0.02527515,0.02386910,-0.00804092,
 0.01912742,0.01891853,0.56447827,0.00001999,0.00007635,-0.00003868,0.0
 0004290,-0.00000146,0.00000862,-0.00000502,-0.00000404,0.00000715,-0.0
 0003499,0.00000891,0.00000471,-0.00367975,-0.00233694,0.00134692,0.000
 49386,-0.00150736,-0.00035788,0.00025373,-0.00019894,0.00023979,-0.000
 14441,0.00015137,-0.00001561,0.00017675,0.00007761,0.00019833,0.000127
 70,0.00007711,-0.00001989,0.00000712,-0.00000794,-0.00002146,0.0013780
 5,-0.00142644,-0.00053558,-0.00009136,0.00007022,0.00000455,0.00497715
 ,-0.02092317,-0.01098006,0.00087267,0.00088085,-0.00008118,-0.06211876
 ,0.05200399,0.02238202,0.06520312,-0.00000508,-0.00000435,0.00002101,-
 0.00001797,0.00000207,-0.00000149,-0.00000383,0.00000006,-0.00000019,-
 0.00005385,0.00003686,0.00000637,-0.00479661,-0.00215527,0.00255614,0.
 00030700,-0.00150951,-0.00077914,-0.00005112,0.00049074,0.00012328,-0.
 00000822,0.00026060,-0.00012240,-0.00020123,0.00034426,0.00025568,0.00
 024812,0.00024422,0.00001346,0.00000402,-0.00005337,0.00000374,0.00169
 572,0.00007288,-0.00018835,-0.00002846,0.00007123,0.00007128,0.0061018
 6,-0.01975107,-0.00929848,0.00038607,0.00064070,0.00054806,0.05117305,
 -0.25694871,-0.09147220,-0.05488732,0.28069019,-0.00001823,-0.00005396
 ,-0.00001074,-0.00000851,0.00001630,-0.00000326,-0.00000645,-0.0000056
 1,-0.00000915,-0.00001319,0.00000817,0.00001716,0.00097170,0.00089676,
 0.00010795,0.00016148,0.00041292,0.00060522,0.00024471,-0.00019166,-0.
 00013221,0.00010047,0.00040120,0.00043745,-0.00020383,0.00021402,0.000
 02483,0.00004991,0.00005922,-0.00003210,0.00001910,0.00002066,-0.00004
 516,-0.00004769,-0.00036225,-0.00014643,0.00001534,-0.00012197,0.00001
 947,-0.00228491,0.00853154,0.00269680,-0.00070141,-0.00005462,0.000531
 02,0.02192650,-0.09168928,-0.09006614,-0.02568191,0.10028675,0.0927082
 5,0.00001370,0.00002322,-0.00008013,0.00002064,-0.00000361,-0.00000286
 ,-0.00005227,0.00000594,-0.00002980,-0.00000728,-0.00000112,0.00000613
 ,0.00055345,0.00128685,0.00002665,-0.00011796,0.00025436,-0.00013240,0
 .00001216,-0.00010477,-0.00017845,0.00031980,-0.00021658,-0.00054455,-
 0.00013727,-0.00008429,-0.00005835,0.00003427,0.00002646,-0.00000225,0
 .00008809,0.00010152,-0.00026272,0.00173045,0.00026859,0.00158274,-0.0
 0028310,-0.00014692,-0.00081016,-0.00244552,-0.00213359,0.02515608,-0.
 00318668,-0.00366087,0.00114062,-0.05063504,-0.00111820,0.01754105,-0.
 00133496,-0.00104521,0.00779000,0.05208642,0.00001481,-0.00001277,-0.0
 0008619,-0.00000487,-0.00000768,0.00001154,-0.00002701,0.00001807,-0.0
 0000497,0.00000194,0.00000143,-0.00000396,0.00049388,0.00148863,0.0014
 6711,0.00006904,0.00026423,-0.00038182,0.00002894,-0.00010631,0.000024
 16,-0.00013396,-0.00022983,-0.00075998,0.00001788,-0.00009510,-0.00000
 189,-0.00001389,-0.00002841,0.00000269,0.00009754,0.00002988,-0.000130
 01,0.00124347,0.00033842,0.00009245,-0.00024788,0.00030858,-0.00046885
 ,-0.00135609,-0.00296299,0.02369484,-0.00369635,-0.00278548,0.00112599
 ,-0.00111270,-0.05211229,0.02427284,0.00138154,0.00438640,-0.03039635,
 0.00446398,0.05315476,0.00004512,0.00007434,-0.00003295,0.00004447,-0.
 00000810,0.00000570,0.00002585,0.00000353,0.00002302,-0.00000365,-0.00
 000394,-0.00000862,-0.00028783,-0.00069255,0.00059706,0.00002551,0.000
 08285,0.00039108,0.00003353,0.00002480,-0.00004581,-0.00006181,0.00085
 250,0.00055133,0.00014617,-0.00005857,0.00045897,0.00000363,0.00001280
 ,0.00000290,-0.00023807,-0.00011371,0.00006969,-0.00083367,-0.00020306
 ,0.00027496,0.00075216,-0.00011250,0.00062606,0.00111707,0.00115125,-0
 .00888381,0.00142533,0.00132239,0.00124980,0.01757268,0.02435140,-0.30
 273655,0.00029265,0.00128270,-0.01184576,-0.02087851,-0.02850109,0.330
 04673,-0.00031399,-0.00055305,0.00029553,-0.00026627,0.00007978,-0.000
 05693,0.00002270,0.00001569,-0.00003661,0.00003237,0.00003845,0.000002
 61,0.00049776,0.00148126,-0.00019390,0.00042033,0.00001478,0.00032751,
 0.00073643,-0.00088805,-0.00004678,0.00003296,-0.00007885,0.00002863,-
 0.00064373,0.00118565,-0.00113408,-0.00010204,-0.00019561,-0.00002598,
 -0.00000401,0.00000580,0.00011173,-0.00243720,-0.00486254,0.00279448,0
 .00022951,-0.00003895,-0.00018345,-0.02079546,0.00808551,-0.00889944,0
 .00074547,0.00038777,0.00053408,-0.25467125,0.06820548,-0.08225708,-0.
 00556729,0.00192737,-0.00199058,0.00344741,-0.00113460,0.00075109,0.27
 817793,-0.00026423,-0.00036341,0.00022071,-0.00017491,0.00006595,-0.00
 004140,0.00001500,-0.00000549,-0.00001873,-0.00000510,0.00001950,0.000
 01894,-0.00097184,0.00138059,-0.00037922,0.00020812,0.00030614,0.00013
 584,0.00028874,-0.00047871,0.00011532,0.00002633,-0.00012018,-0.000033
 58,-0.00114975,0.00109679,-0.00045039,0.00013330,0.00002573,-0.0000889
 2,0.00003532,0.00001893,0.00003582,-0.00224404,-0.00362553,0.00130963,
 0.00011095,-0.00012108,-0.00002776,-0.02030001,0.00629514,-0.00958049,
 0.00092080,0.00080673,-0.00014834,0.06904983,-0.07205395,0.02691287,0.
 02604598,-0.00783232,0.01197400,0.00201227,-0.00168656,0.00048626,-0.0
 7352909,0.07590426,0.00008785,0.00008048,-0.00007174,0.00005069,-0.000
 01976,0.00000467,0.00000081,0.00001258,0.00000433,-0.00000211,-0.00000
 451,-0.00000247,-0.00037137,-0.00013758,-0.00009333,0.00019502,-0.0001
 5786,-0.00009821,-0.00003954,-0.00025363,0.00021339,-0.00014450,0.0000
 4474,-0.00003139,0.00045793,0.00006063,0.00066000,0.00001063,0.0000135
 4,-0.00001496,-0.00010890,-0.00007679,0.00001831,0.00093077,0.00095438
 ,-0.00004933,0.00041159,0.00003964,0.00047053,0.00854090,-0.00297378,0
 .00233737,-0.00008469,-0.00071164,0.00049729,-0.08243488,0.02658773,-0
 .08240811,0.01307340,-0.00331233,0.00488725,-0.03027076,0.01023709,-0.
 01068281,0.08983975,-0.03070912,0.08448894,0.00172536,-0.00123726,-0.0
 0056249,0.00032145,0.00023398,0.00015146,-0.00005910,0.00005632,-0.000
 06951,-0.00043083,0.00061039,0.00027579,-0.00568576,0.00048705,-0.0030
 4865,0.00016273,0.00002283,-0.00016975,-0.00047471,0.00201695,0.000536
 31,0.00006657,-0.00037244,0.00000104,0.00103141,-0.02578226,-0.0091185
 3,-0.00419280,-0.00321851,0.00186824,0.00087701,0.00086533,-0.00002827
 ,-0.05209792,0.03192027,0.01090737,-0.00050735,0.00000818,0.00012590,-
 0.00633595,0.02765503,0.01120787,0.00100149,-0.00055338,-0.00019029,0.
 00088068,0.00183596,0.00071911,-0.00057649,-0.00074432,-0.00032250,-0.
 00010628,-0.00008568,0.00006829,0.00045839,-0.00020767,-0.00014259,0.0
 6394209,0.00143486,0.00070903,-0.00013981,0.00005081,0.00046642,0.0003
 0619,-0.00008938,0.00004695,-0.00000534,-0.00101178,0.00077428,-0.0000
 5779,0.00212130,0.00091721,0.00195770,-0.00016185,0.00016530,-0.000003
 15,0.00028569,-0.00072945,-0.00030455,-0.00011103,0.00018333,-0.000043
 47,0.00097007,-0.02038186,-0.00687869,-0.00324032,-0.00108569,0.002014
 85,0.00036506,0.00056867,0.00043812,0.03234462,-0.26575270,-0.07655798
 ,-0.00027304,0.00151230,-0.00023853,0.00218576,-0.01163693,-0.00454518
 ,-0.00015287,0.00017871,0.00047039,-0.00165205,0.00052749,-0.00025276,
 0.00051969,0.00101438,0.00005417,0.00007197,0.00003702,0.00004870,-0.0
 0014679,0.00036746,0.00032619,-0.03351075,0.29211809,-0.00037848,-0.00
 019913,0.00013714,-0.00020760,0.00018843,-0.00011541,0.00008430,-0.000
 15790,-0.00005549,-0.00024565,-0.00018108,0.00014131,-0.00158756,0.000
 07014,-0.00033756,0.00011447,-0.00013942,-0.00006605,-0.00018717,0.000
 40810,0.00058076,-0.00024903,0.00030375,0.00043016,-0.00072561,0.01092
 470,0.00362650,0.00177285,0.00175420,0.00051851,-0.00082551,0.00001468
 ,0.00067998,0.01142228,-0.07628127,-0.07900137,0.00460074,-0.03173101,
 -0.01090112,-0.00282792,0.01145118,0.00332143,0.00072156,0.00008653,0.
 00054595,0.00040588,-0.00000393,0.00021435,0.00017411,0.00000610,0.000
 25554,0.00000770,-0.00019360,-0.00006100,0.00013944,0.00026855,-0.0001
 2972,-0.01220879,0.08341098,0.08021610\\0.00000314,-0.00000979,-0.0000
 0773,0.00000200,-0.00000765,-0.00001069,0.00000302,-0.00001021,-0.0000
 0682,-0.00000462,-0.00000938,-0.00001127,0.00000292,0.00001209,0.00001
 221,0.00000630,0.00000225,0.00000394,0.00000392,0.00000551,0.00000817,
 0.00000746,0.00000305,0.00000772,-0.00000243,0.00000088,-0.00000727,0.
 00000357,-0.00000437,0.00000100,-0.00000074,-0.00000411,-0.00000474,-0
 .00000275,-0.00000811,0.00000499,0.00000165,0.00000016,-0.00000233,0.0
 0000011,0.00000172,-0.00000171,-0.00000286,0.00000523,0.00000032,-0.00
 000378,0.00000282,0.00000817,-0.00000565,0.00000429,0.00000059,-0.0000
 0104,0.00000430,0.00000559,-0.00000414,0.00001140,0.00000594,-0.000006
 10,-0.00000009,-0.00000608\\\@


 MANHOOD BEGINS BY TRYING TO SHAVE FACE,
 AND ENDS BY TRYING TO SAVE FACE.
 Job cpu time:  0 days  0 hours  3 minutes 30.5 seconds.
 File lengths (MBytes):  RWF=     39 Int=      0 D2E=      0 Chk=      2 Scr=      1
 Normal termination of Gaussian 09 at Mon Jan 22 17:40:28 2018.
