 Entering Gaussian System, Link 0=g09
 Input=3-methyl-pentane.inp
 Output=3-methyl-pentane.log
 Initial command:
 /usr/local/g09/l1.exe /home/g09scr/Gau-26473.inp -scrdir=/home/g09scr/
 Entering Link 1 = /usr/local/g09/l1.exe PID=     26475.
  
 Copyright (c) 1988,1990,1992,1993,1995,1998,2003,2009,2010,
            Gaussian, Inc.  All Rights Reserved.
  
 This is part of the Gaussian(R) 09 program.  It is based on
 the Gaussian(R) 03 system (copyright 2003, Gaussian, Inc.),
 the Gaussian(R) 98 system (copyright 1998, Gaussian, Inc.),
 the Gaussian(R) 94 system (copyright 1995, Gaussian, Inc.),
 the Gaussian 92(TM) system (copyright 1992, Gaussian, Inc.),
 the Gaussian 90(TM) system (copyright 1990, Gaussian, Inc.),
 the Gaussian 88(TM) system (copyright 1988, Gaussian, Inc.),
 the Gaussian 86(TM) system (copyright 1986, Carnegie Mellon
 University), and the Gaussian 82(TM) system (copyright 1983,
 Carnegie Mellon University). Gaussian is a federally registered
 trademark of Gaussian, Inc.
  
 This software contains proprietary and confidential information,
 including trade secrets, belonging to Gaussian, Inc.
  
 This software is provided under written license and may be
 used, copied, transmitted, or stored only in accord with that
 written license.
  
 The following legend is applicable only to US Government
 contracts under FAR:
  
                    RESTRICTED RIGHTS LEGEND
  
 Use, reproduction and disclosure by the US Government is
 subject to restrictions as set forth in subparagraphs (a)
 and (c) of the Commercial Computer Software - Restricted
 Rights clause in FAR 52.227-19.
  
 Gaussian, Inc.
 340 Quinnipiac St., Bldg. 40, Wallingford CT 06492
  
  
 ---------------------------------------------------------------
 Warning -- This program may not be used in any manner that
 competes with the business of Gaussian, Inc. or will provide
 assistance to any competitor of Gaussian, Inc.  The licensee
 of this program is prohibited from giving any competitor of
 Gaussian, Inc. access to this program.  By using this program,
 the user acknowledges that Gaussian, Inc. is engaged in the
 business of creating and licensing software in the field of
 computational chemistry and represents and warrants to the
 licensee that it is not a competitor of Gaussian, Inc. and that
 it will not use this program in any manner prohibited above.
 ---------------------------------------------------------------
  

 Cite this work as:
 Gaussian 09, Revision B.01,
 M. J. Frisch, G. W. Trucks, H. B. Schlegel, G. E. Scuseria, 
 M. A. Robb, J. R. Cheeseman, G. Scalmani, V. Barone, B. Mennucci, 
 G. A. Petersson, H. Nakatsuji, M. Caricato, X. Li, H. P. Hratchian, 
 A. F. Izmaylov, J. Bloino, G. Zheng, J. L. Sonnenberg, M. Hada, 
 M. Ehara, K. Toyota, R. Fukuda, J. Hasegawa, M. Ishida, T. Nakajima, 
 Y. Honda, O. Kitao, H. Nakai, T. Vreven, J. A. Montgomery, Jr., 
 J. E. Peralta, F. Ogliaro, M. Bearpark, J. J. Heyd, E. Brothers, 
 K. N. Kudin, V. N. Staroverov, T. Keith, R. Kobayashi, J. Normand, 
 K. Raghavachari, A. Rendell, J. C. Burant, S. S. Iyengar, J. Tomasi, 
 M. Cossi, N. Rega, J. M. Millam, M. Klene, J. E. Knox, J. B. Cross, 
 V. Bakken, C. Adamo, J. Jaramillo, R. Gomperts, R. E. Stratmann, 
 O. Yazyev, A. J. Austin, R. Cammi, C. Pomelli, J. W. Ochterski, 
 R. L. Martin, K. Morokuma, V. G. Zakrzewski, G. A. Voth, 
 P. Salvador, J. J. Dannenberg, S. Dapprich, A. D. Daniels, 
 O. Farkas, J. B. Foresman, J. V. Ortiz, J. Cioslowski, 
 and D. J. Fox, Gaussian, Inc., Wallingford CT, 2010.
 
 ******************************************
 Gaussian 09:  EM64L-G09RevB.01 12-Aug-2010
                23-Jan-2018 
 ******************************************
 %nproc=4
 Will use up to    4 processors via shared memory.
 %mem=60gb
 ----------------------------
 #B3LYP/6-31G* fopt test freq
 ----------------------------
 1/14=-1,18=20,19=15,26=3,38=1/1,3;
 2/9=110,12=2,14=103,17=6,18=5,40=1/2;
 3/5=1,6=6,7=1,11=2,16=1,25=1,30=1,71=1,74=-5/1,2,3;
 4//1;
 5/5=2,38=5/2;
 6/7=2,8=2,9=2,10=2,28=1/1;
 7//1,2,3,16;
 1/14=-1,18=20,19=15/3(2);
 2/9=110/2;
 99//99;
 2/9=110/2;
 3/5=1,6=6,7=1,11=2,16=1,25=1,30=1,71=1,74=-5/1,2,3;
 4/5=5,16=3/1;
 5/5=2,38=5/2;
 7//1,2,3,16;
 1/14=-1,18=20,19=15/3(-5);
 2/9=110/2;
 6/7=2,8=2,9=2,10=2,19=2,28=1/1;
 99/9=1/99;
 --------------------------------
 IsomerC6H14/3-methyl-pentane.xyz
 --------------------------------
 Symbolic Z-matrix:
 Charge =  0 Multiplicity = 1
 6                     0.11993   0.17937   0. 
 6                    -1.23053   0.90545   0. 
 1                     0.92541   0.94386   0. 
 6                     0.29864  -0.68611   1.25872 
 6                     0.29864  -0.68611  -1.25872 
 6                     0.29864   0.09354   2.57728 
 6                     0.29864   0.09354  -2.57728 
 1                    -2.05812   0.17183   0. 
 1                    -1.34794   1.54887   0.88681 
 1                    -1.34794   1.54887  -0.88681 
 1                    -0.50125  -1.45241   1.27843 
 1                    -0.50125  -1.45241  -1.27843 
 1                     1.25308  -1.23805   1.16891 
 1                     1.25308  -1.23805  -1.16891 
 1                     0.52798  -0.57058   3.42727 
 1                     0.52798  -0.57058  -3.42727 
 1                     1.06044   0.89262   2.5596 
 1                    -0.67777   0.56266   2.77941 
 1                     1.06044   0.89262  -2.5596 
 1                    -0.67777   0.56266  -2.77941 
 

 GradGradGradGradGradGradGradGradGradGradGradGradGradGradGradGradGradGrad
 Berny optimization.
 Initialization pass.
                           ----------------------------
                           !    Initial Parameters    !
                           ! (Angstroms and Degrees)  !
 --------------------------                            --------------------------
 ! Name  Definition              Value          Derivative Info.                !
 --------------------------------------------------------------------------------
 ! R1    R(1,2)                  1.5333         estimate D2E/DX2                !
 ! R2    R(1,3)                  1.1105         estimate D2E/DX2                !
 ! R3    R(1,4)                  1.538          estimate D2E/DX2                !
 ! R4    R(1,5)                  1.538          estimate D2E/DX2                !
 ! R5    R(2,8)                  1.1059         estimate D2E/DX2                !
 ! R6    R(2,9)                  1.1019         estimate D2E/DX2                !
 ! R7    R(2,10)                 1.1019         estimate D2E/DX2                !
 ! R8    R(4,6)                  1.5318         estimate D2E/DX2                !
 ! R9    R(4,11)                 1.1079         estimate D2E/DX2                !
 ! R10   R(4,13)                 1.1062         estimate D2E/DX2                !
 ! R11   R(5,7)                  1.5318         estimate D2E/DX2                !
 ! R12   R(5,12)                 1.1079         estimate D2E/DX2                !
 ! R13   R(5,14)                 1.1062         estimate D2E/DX2                !
 ! R14   R(6,15)                 1.1028         estimate D2E/DX2                !
 ! R15   R(6,17)                 1.1042         estimate D2E/DX2                !
 ! R16   R(6,18)                 1.1019         estimate D2E/DX2                !
 ! R17   R(7,16)                 1.1028         estimate D2E/DX2                !
 ! R18   R(7,19)                 1.1042         estimate D2E/DX2                !
 ! R19   R(7,20)                 1.1019         estimate D2E/DX2                !
 ! A1    A(2,1,3)              108.2304         estimate D2E/DX2                !
 ! A2    A(2,1,4)              111.6433         estimate D2E/DX2                !
 ! A3    A(2,1,5)              111.6433         estimate D2E/DX2                !
 ! A4    A(3,1,4)              107.6449         estimate D2E/DX2                !
 ! A5    A(3,1,5)              107.6449         estimate D2E/DX2                !
 ! A6    A(4,1,5)              109.8555         estimate D2E/DX2                !
 ! A7    A(1,2,8)              110.1797         estimate D2E/DX2                !
 ! A8    A(1,2,9)              111.738          estimate D2E/DX2                !
 ! A9    A(1,2,10)             111.738          estimate D2E/DX2                !
 ! A10   A(8,2,9)              107.9146         estimate D2E/DX2                !
 ! A11   A(8,2,10)             107.9146         estimate D2E/DX2                !
 ! A12   A(9,2,10)             107.1802         estimate D2E/DX2                !
 ! A13   A(1,4,6)              114.7129         estimate D2E/DX2                !
 ! A14   A(1,4,11)             108.6568         estimate D2E/DX2                !
 ! A15   A(1,4,13)             108.3358         estimate D2E/DX2                !
 ! A16   A(6,4,11)             109.6777         estimate D2E/DX2                !
 ! A17   A(6,4,13)             108.8958         estimate D2E/DX2                !
 ! A18   A(11,4,13)            106.2168         estimate D2E/DX2                !
 ! A19   A(1,5,7)              114.7129         estimate D2E/DX2                !
 ! A20   A(1,5,12)             108.6568         estimate D2E/DX2                !
 ! A21   A(1,5,14)             108.3358         estimate D2E/DX2                !
 ! A22   A(7,5,12)             109.6777         estimate D2E/DX2                !
 ! A23   A(7,5,14)             108.8958         estimate D2E/DX2                !
 ! A24   A(12,5,14)            106.2168         estimate D2E/DX2                !
 ! A25   A(4,6,15)             110.9127         estimate D2E/DX2                !
 ! A26   A(4,6,17)             110.7663         estimate D2E/DX2                !
 ! A27   A(4,6,18)             111.9976         estimate D2E/DX2                !
 ! A28   A(15,6,17)            107.7393         estimate D2E/DX2                !
 ! A29   A(15,6,18)            107.414          estimate D2E/DX2                !
 ! A30   A(17,6,18)            107.8289         estimate D2E/DX2                !
 ! A31   A(5,7,16)             110.9127         estimate D2E/DX2                !
 ! A32   A(5,7,19)             110.7663         estimate D2E/DX2                !
 ! A33   A(5,7,20)             111.9976         estimate D2E/DX2                !
 ! A34   A(16,7,19)            107.7393         estimate D2E/DX2                !
 ! A35   A(16,7,20)            107.414          estimate D2E/DX2                !
 ! A36   A(19,7,20)            107.8289         estimate D2E/DX2                !
 ! D1    D(3,1,2,8)            180.0            estimate D2E/DX2                !
 ! D2    D(3,1,2,9)            -60.0434         estimate D2E/DX2                !
 ! D3    D(3,1,2,10)            60.0434         estimate D2E/DX2                !
 ! D4    D(4,1,2,8)            -61.7034         estimate D2E/DX2                !
 ! D5    D(4,1,2,9)             58.2532         estimate D2E/DX2                !
 ! D6    D(4,1,2,10)           178.34           estimate D2E/DX2                !
 ! D7    D(5,1,2,8)             61.7034         estimate D2E/DX2                !
 ! D8    D(5,1,2,9)           -178.34           estimate D2E/DX2                !
 ! D9    D(5,1,2,10)           -58.2532         estimate D2E/DX2                !
 ! D10   D(2,1,4,6)            -62.0912         estimate D2E/DX2                !
 ! D11   D(2,1,4,11)            61.0446         estimate D2E/DX2                !
 ! D12   D(2,1,4,13)           176.0324         estimate D2E/DX2                !
 ! D13   D(3,1,4,6)             56.5549         estimate D2E/DX2                !
 ! D14   D(3,1,4,11)           179.6907         estimate D2E/DX2                !
 ! D15   D(3,1,4,13)           -65.3215         estimate D2E/DX2                !
 ! D16   D(5,1,4,6)            173.4944         estimate D2E/DX2                !
 ! D17   D(5,1,4,11)           -63.3698         estimate D2E/DX2                !
 ! D18   D(5,1,4,13)            51.618          estimate D2E/DX2                !
 ! D19   D(2,1,5,7)             62.0912         estimate D2E/DX2                !
 ! D20   D(2,1,5,12)           -61.0446         estimate D2E/DX2                !
 ! D21   D(2,1,5,14)          -176.0324         estimate D2E/DX2                !
 ! D22   D(3,1,5,7)            -56.5549         estimate D2E/DX2                !
 ! D23   D(3,1,5,12)          -179.6907         estimate D2E/DX2                !
 ! D24   D(3,1,5,14)            65.3215         estimate D2E/DX2                !
 ! D25   D(4,1,5,7)           -173.4944         estimate D2E/DX2                !
 ! D26   D(4,1,5,12)            63.3698         estimate D2E/DX2                !
 ! D27   D(4,1,5,14)           -51.618          estimate D2E/DX2                !
 ! D28   D(1,4,6,15)          -174.4853         estimate D2E/DX2                !
 ! D29   D(1,4,6,17)           -54.8993         estimate D2E/DX2                !
 ! D30   D(1,4,6,18)            65.5212         estimate D2E/DX2                !
 ! D31   D(11,4,6,15)           62.9282         estimate D2E/DX2                !
 ! D32   D(11,4,6,17)         -177.4858         estimate D2E/DX2                !
 ! D33   D(11,4,6,18)          -57.0652         estimate D2E/DX2                !
 ! D34   D(13,4,6,15)          -52.9141         estimate D2E/DX2                !
 ! D35   D(13,4,6,17)           66.6719         estimate D2E/DX2                !
 ! D36   D(13,4,6,18)         -172.9075         estimate D2E/DX2                !
 ! D37   D(1,5,7,16)           174.4853         estimate D2E/DX2                !
 ! D38   D(1,5,7,19)            54.8993         estimate D2E/DX2                !
 ! D39   D(1,5,7,20)           -65.5212         estimate D2E/DX2                !
 ! D40   D(12,5,7,16)          -62.9282         estimate D2E/DX2                !
 ! D41   D(12,5,7,19)          177.4858         estimate D2E/DX2                !
 ! D42   D(12,5,7,20)           57.0652         estimate D2E/DX2                !
 ! D43   D(14,5,7,16)           52.9141         estimate D2E/DX2                !
 ! D44   D(14,5,7,19)          -66.6719         estimate D2E/DX2                !
 ! D45   D(14,5,7,20)          172.9075         estimate D2E/DX2                !
 --------------------------------------------------------------------------------
 Trust Radius=3.00D-01 FncErr=1.00D-07 GrdErr=1.00D-06
 Number of steps in this run=    110 maximum allowed number of steps=    120.
 GradGradGradGradGradGradGradGradGradGradGradGradGradGradGradGradGradGrad

                          Input orientation:                          
 ---------------------------------------------------------------------
 Center     Atomic      Atomic             Coordinates (Angstroms)
 Number     Number       Type             X           Y           Z
 ---------------------------------------------------------------------
      1          6           0        0.119927    0.179368    0.000000
      2          6           0       -1.230526    0.905448    0.000000
      3          1           0        0.925406    0.943863    0.000000
      4          6           0        0.298635   -0.686109    1.258723
      5          6           0        0.298635   -0.686109   -1.258723
      6          6           0        0.298635    0.093541    2.577281
      7          6           0        0.298635    0.093541   -2.577281
      8          1           0       -2.058122    0.171828    0.000000
      9          1           0       -1.347940    1.548873    0.886812
     10          1           0       -1.347940    1.548873   -0.886812
     11          1           0       -0.501251   -1.452408    1.278434
     12          1           0       -0.501251   -1.452408   -1.278434
     13          1           0        1.253075   -1.238053    1.168905
     14          1           0        1.253075   -1.238053   -1.168905
     15          1           0        0.527975   -0.570580    3.427265
     16          1           0        0.527975   -0.570580   -3.427265
     17          1           0        1.060438    0.892620    2.559600
     18          1           0       -0.677767    0.562663    2.779405
     19          1           0        1.060438    0.892620   -2.559600
     20          1           0       -0.677767    0.562663   -2.779405
 ---------------------------------------------------------------------
                    Distance matrix (angstroms):
                    1          2          3          4          5
     1  C    0.000000
     2  C    1.533270   0.000000
     3  H    1.110517   2.156274   0.000000
     4  C    1.537976   2.540821   2.152681   0.000000
     5  C    1.537976   2.540821   2.152681   2.517446   0.000000
     6  C    2.584895   3.104819   2.785367   1.531812   3.914432
     7  C    2.584895   3.104819   2.785367   3.914432   1.531812
     8  H    2.178062   1.105945   3.081798   2.806197   2.806197
     9  H    2.194678   1.101915   2.514075   2.800834   3.508515
    10  H    2.194678   1.101915   2.514075   3.508515   2.800834
    11  H    2.164012   2.779518   3.067875   1.107890   2.768429
    12  H    2.164012   2.779518   3.067875   2.768429   1.107890
    13  H    2.158575   3.482701   2.496891   1.106194   2.666266
    14  H    2.158575   3.482701   2.496891   2.666266   1.106194
    15  H    3.532007   4.125182   3.767975   2.183694   4.693019
    16  H    3.532007   4.125182   3.767975   4.693019   2.183694
    17  H    2.818660   3.435147   2.563672   2.182890   4.201466
    18  H    2.916903   2.854494   3.231187   2.196649   4.338118
    19  H    2.818660   3.435147   2.563672   4.201466   2.182890
    20  H    2.916903   2.854494   3.231187   4.338118   2.196649
                    6          7          8          9         10
     6  C    0.000000
     7  C    5.154562   0.000000
     8  H    3.493252   3.493252   0.000000
     9  H    2.772523   4.102334   1.785230   0.000000
    10  H    4.102334   2.772523   1.785230   1.773624   0.000000
    11  H    2.171815   4.230404   2.587737   3.142919   3.796427
    12  H    4.230404   2.171815   2.587737   3.796427   3.142919
    13  H    2.160468   4.088766   3.783930   3.822540   4.331075
    14  H    4.088766   2.160468   3.783930   4.331075   3.822540
    15  H    1.102781   6.045513   4.357202   3.803293   5.159690
    16  H    6.045513   1.102781   4.357202   5.159690   3.803293
    17  H    1.104167   5.254181   4.098355   3.004858   4.255433
    18  H    1.101948   5.465119   3.127815   2.236884   3.855242
    19  H    5.254181   1.104167   4.098355   4.255433   3.004858
    20  H    5.465119   1.101948   3.127815   3.855242   2.236884
                   11         12         13         14         15
    11  H    0.000000
    12  H    2.556868   0.000000
    13  H    1.770764   3.018787   0.000000
    14  H    3.018787   1.770764   2.337810   0.000000
    15  H    2.540551   4.896992   2.464037   4.700646   0.000000
    16  H    4.896992   2.540551   4.700646   2.464037   6.854530
    17  H    3.095063   4.761148   2.551648   4.298677   1.782502
    18  H    2.518846   4.534063   3.092643   4.749724   1.777013
    19  H    4.761148   3.095063   4.298677   2.551648   6.186035
    20  H    4.534063   2.518846   4.749724   3.092643   6.423457
                   16         17         18         19         20
    16  H    0.000000
    17  H    6.186035   0.000000
    18  H    6.423457   1.782847   0.000000
    19  H    1.782502   5.119200   5.624518   0.000000
    20  H    1.777013   5.624518   5.558810   1.782847   0.000000
 Stoichiometry    C6H14
 Framework group  CS[SG(C2H2),X(C4H12)]
 Deg. of freedom    29
 Full point group                 CS      NOp   2
 Largest Abelian subgroup         CS      NOp   2
 Largest concise Abelian subgroup CS      NOp   2
                         Standard orientation:                         
 ---------------------------------------------------------------------
 Center     Atomic      Atomic             Coordinates (Angstroms)
 Number     Number       Type             X           Y           Z
 ---------------------------------------------------------------------
      1          6           0        0.119927    0.179368    0.000000
      2          6           0       -1.230526    0.905448    0.000000
      3          1           0        0.925406    0.943863    0.000000
      4          6           0        0.298635   -0.686109    1.258723
      5          6           0        0.298635   -0.686109   -1.258723
      6          6           0        0.298635    0.093541    2.577281
      7          6           0        0.298635    0.093541   -2.577281
      8          1           0       -2.058122    0.171828    0.000000
      9          1           0       -1.347940    1.548873    0.886812
     10          1           0       -1.347940    1.548873   -0.886812
     11          1           0       -0.501251   -1.452408    1.278434
     12          1           0       -0.501251   -1.452408   -1.278434
     13          1           0        1.253075   -1.238053    1.168905
     14          1           0        1.253075   -1.238053   -1.168905
     15          1           0        0.527975   -0.570580    3.427265
     16          1           0        0.527975   -0.570580   -3.427265
     17          1           0        1.060438    0.892620    2.559600
     18          1           0       -0.677767    0.562663    2.779405
     19          1           0        1.060438    0.892620   -2.559600
     20          1           0       -0.677767    0.562663   -2.779405
 ---------------------------------------------------------------------
 Rotational constants (GHZ):      6.5998785      1.8468669      1.5892915
 Standard basis: 6-31G(d) (6D, 7F)
 There are    68 symmetry adapted basis functions of A'  symmetry.
 There are    50 symmetry adapted basis functions of A"  symmetry.
 Integral buffers will be    131072 words long.
 Raffenetti 2 integral format.
 Two-electron integral symmetry is turned on.
   118 basis functions,   224 primitive gaussians,   118 cartesian basis functions
    25 alpha electrons       25 beta electrons
       nuclear repulsion energy       255.7015106643 Hartrees.
 NAtoms=   20 NActive=   20 NUniq=   12 SFac= 2.78D+00 NAtFMM=   50 NAOKFM=F Big=F
 One-electron integrals computed using PRISM.
 NBasis=   118 RedAO= T  NBF=    68    50
 NBsUse=   118 1.00D-06 NBFU=    68    50
 Harris functional with IExCor=  402 diagonalized for initial guess.
 ExpMin= 1.61D-01 ExpMax= 3.05D+03 ExpMxC= 4.57D+02 IAcc=1 IRadAn=         1 AccDes= 0.00D+00
 HarFok:  IExCor=  402 AccDes= 0.00D+00 IRadAn=         1 IDoV= 1
 ScaDFX=  1.000000  1.000000  1.000000  1.000000
 FoFCou: FMM=F IPFlag=           0 FMFlag=      100000 FMFlg1=           0
         NFxFlg=           0 DoJE=T BraDBF=F KetDBF=T FulRan=T
         Omega=  0.000000  0.000000  1.000000  0.000000  0.000000 ICntrl=     500 IOpCl=  0
         NMat0=    1 NMatS0=    1 NMatT0=    0 NMatD0=    1 NMtDS0=    0 NMtDT0=    0
         I1Cent=           4 NGrid=           0.
 Petite list used in FoFCou.
 Initial guess orbital symmetries:
       Occupied  (A") (A') (A') (A") (A') (A') (A') (A") (A') (A')
                 (A") (A') (A') (A") (A") (A') (A') (A') (A") (A')
                 (A") (A") (A") (A') (A')
       Virtual   (A') (A') (A') (A") (A') (A") (A') (A") (A') (A')
                 (A") (A") (A') (A") (A') (A") (A') (A") (A') (A')
                 (A") (A') (A') (A") (A") (A') (A") (A') (A') (A')
                 (A") (A') (A") (A') (A') (A") (A') (A') (A') (A")
                 (A") (A') (A") (A') (A") (A') (A") (A") (A') (A")
                 (A') (A') (A') (A") (A") (A') (A") (A") (A') (A')
                 (A") (A') (A') (A") (A') (A') (A") (A") (A') (A")
                 (A') (A") (A') (A') (A') (A") (A') (A") (A") (A')
                 (A') (A") (A') (A") (A') (A') (A") (A') (A") (A')
                 (A') (A") (A')
 The electronic state of the initial guess is 1-A'.
 Requested convergence on RMS density matrix=1.00D-08 within 128 cycles.
 Requested convergence on MAX density matrix=1.00D-06.
 Requested convergence on             energy=1.00D-06.
 No special actions if energy rises.
 Keep R1 ints in memory in canonical form, NReq=25818817.
 Integral accuracy reduced to 1.0D-05 until final iterations.
 Initial convergence to 1.0D-05 achieved.  Increase integral accuracy.
 SCF Done:  E(RB3LYP) =  -237.082627237     A.U. after   12 cycles
             Convg  =    0.3747D-08             -V/T =  2.0109

 **********************************************************************

            Population analysis using the SCF density.

 **********************************************************************

 Orbital symmetries:
       Occupied  (A') (A") (A') (A") (A') (A') (A') (A") (A') (A')
                 (A") (A') (A') (A") (A") (A') (A') (A') (A") (A')
                 (A") (A") (A') (A') (A")
       Virtual   (A') (A') (A") (A') (A") (A') (A') (A') (A") (A")
                 (A') (A") (A') (A") (A') (A') (A") (A") (A') (A')
                 (A') (A") (A') (A") (A") (A') (A") (A') (A') (A")
                 (A') (A') (A") (A') (A') (A") (A') (A') (A') (A")
                 (A") (A') (A") (A') (A") (A') (A") (A') (A") (A")
                 (A') (A') (A') (A") (A") (A') (A") (A") (A') (A')
                 (A") (A') (A') (A') (A") (A') (A") (A") (A') (A")
                 (A') (A") (A') (A') (A') (A") (A') (A") (A") (A')
                 (A') (A") (A') (A") (A') (A') (A") (A') (A") (A')
                 (A') (A") (A')
 The electronic state is 1-A'.
 Alpha  occ. eigenvalues --  -10.18122 -10.17584 -10.17583 -10.17177 -10.17177
 Alpha  occ. eigenvalues --  -10.16938  -0.80841  -0.74341  -0.70184  -0.64707
 Alpha  occ. eigenvalues --   -0.59099  -0.54725  -0.46216  -0.44958  -0.42596
 Alpha  occ. eigenvalues --   -0.41022  -0.39098  -0.38516  -0.36754  -0.35772
 Alpha  occ. eigenvalues --   -0.34542  -0.33001  -0.31341  -0.30842  -0.30309
 Alpha virt. eigenvalues --    0.08442   0.11820   0.11849   0.12663   0.15040
 Alpha virt. eigenvalues --    0.15296   0.16432   0.17311   0.17369   0.17885
 Alpha virt. eigenvalues --    0.18533   0.20065   0.22549   0.23041   0.24349
 Alpha virt. eigenvalues --    0.25308   0.25639   0.28388   0.29251   0.49382
 Alpha virt. eigenvalues --    0.51175   0.51668   0.53287   0.53600   0.59130
 Alpha virt. eigenvalues --    0.59132   0.63303   0.64456   0.65569   0.68055
 Alpha virt. eigenvalues --    0.69970   0.74187   0.78557   0.80766   0.84375
 Alpha virt. eigenvalues --    0.84844   0.86865   0.88467   0.89711   0.89717
 Alpha virt. eigenvalues --    0.90312   0.91352   0.93179   0.94585   0.95213
 Alpha virt. eigenvalues --    0.96548   0.97212   0.98934   0.99125   1.01361
 Alpha virt. eigenvalues --    1.03530   1.07918   1.30250   1.34641   1.40931
 Alpha virt. eigenvalues --    1.42778   1.53652   1.57798   1.60771   1.68315
 Alpha virt. eigenvalues --    1.74845   1.74975   1.83331   1.88573   1.90330
 Alpha virt. eigenvalues --    1.95143   1.96079   1.98889   2.00057   2.01655
 Alpha virt. eigenvalues --    2.02134   2.10034   2.12639   2.19958   2.26914
 Alpha virt. eigenvalues --    2.28108   2.30214   2.30666   2.33983   2.35184
 Alpha virt. eigenvalues --    2.43203   2.51266   2.52469   2.59439   2.68463
 Alpha virt. eigenvalues --    2.77944   2.80279   4.11865   4.21226   4.26983
 Alpha virt. eigenvalues --    4.40670   4.42075   4.60226
          Condensed to atoms (all electrons):
              1          2          3          4          5          6
     1  C    4.859537   0.377002   0.372588   0.393104   0.393104  -0.039688
     2  C    0.377002   5.126986  -0.049667  -0.051630  -0.051630  -0.004265
     3  H    0.372588  -0.049667   0.652280  -0.046983  -0.046983  -0.005067
     4  C    0.393104  -0.051630  -0.046983   4.994916  -0.043667   0.366402
     5  C    0.393104  -0.051630  -0.046983  -0.043667   4.994916   0.004159
     6  C   -0.039688  -0.004265  -0.005067   0.366402   0.004159   5.079001
     7  C   -0.039688  -0.004265  -0.005067   0.004159   0.366402  -0.000143
     8  H   -0.036776   0.369682   0.005990  -0.005389  -0.005389  -0.000393
     9  H   -0.029094   0.369914  -0.003183  -0.005908   0.004975   0.002349
    10  H   -0.029094   0.369914  -0.003183   0.004975  -0.005908   0.000083
    11  H   -0.038394  -0.008170   0.006558   0.368183  -0.004903  -0.039403
    12  H   -0.038394  -0.008170   0.006558  -0.004903   0.368183  -0.000011
    13  H   -0.038295   0.005886  -0.003745   0.371290  -0.005344  -0.039046
    14  H   -0.038295   0.005886  -0.003745  -0.005344   0.371290   0.000078
    15  H    0.004006   0.000146  -0.000018  -0.027114  -0.000123   0.369979
    16  H    0.004006   0.000146  -0.000018  -0.000123  -0.027114   0.000001
    17  H   -0.004799  -0.000691   0.005947  -0.036735   0.000071   0.375552
    18  H   -0.005394   0.002151  -0.000175  -0.032554   0.000027   0.376495
    19  H   -0.004799  -0.000691   0.005947   0.000071  -0.036735  -0.000001
    20  H   -0.005394   0.002151  -0.000175   0.000027  -0.032554   0.000001
              7          8          9         10         11         12
     1  C   -0.039688  -0.036776  -0.029094  -0.029094  -0.038394  -0.038394
     2  C   -0.004265   0.369682   0.369914   0.369914  -0.008170  -0.008170
     3  H   -0.005067   0.005990  -0.003183  -0.003183   0.006558   0.006558
     4  C    0.004159  -0.005389  -0.005908   0.004975   0.368183  -0.004903
     5  C    0.366402  -0.005389   0.004975  -0.005908  -0.004903   0.368183
     6  C   -0.000143  -0.000393   0.002349   0.000083  -0.039403  -0.000011
     7  C    5.079001  -0.000393   0.000083   0.002349  -0.000011  -0.039403
     8  H   -0.000393   0.587941  -0.031287  -0.031287   0.005884   0.005884
     9  H    0.000083  -0.031287   0.575958  -0.030266  -0.000052  -0.000040
    10  H    0.002349  -0.031287  -0.030266   0.575958  -0.000040  -0.000052
    11  H   -0.000011   0.005884  -0.000052  -0.000040   0.620042   0.005317
    12  H   -0.039403   0.005884  -0.000040  -0.000052   0.005317   0.620042
    13  H    0.000078  -0.000016  -0.000008  -0.000175  -0.037657  -0.000339
    14  H   -0.039046  -0.000016  -0.000175  -0.000008  -0.000339  -0.037657
    15  H    0.000001  -0.000026  -0.000093   0.000000  -0.001995   0.000003
    16  H    0.369979  -0.000026   0.000000  -0.000093   0.000003  -0.001995
    17  H   -0.000001   0.000091   0.000511  -0.000035   0.005304   0.000008
    18  H    0.000001   0.000338   0.003064  -0.000110  -0.004809   0.000003
    19  H    0.375552   0.000091  -0.000035   0.000511   0.000008   0.005304
    20  H    0.376495   0.000338  -0.000110   0.003064   0.000003  -0.004809
             13         14         15         16         17         18
     1  C   -0.038295  -0.038295   0.004006   0.004006  -0.004799  -0.005394
     2  C    0.005886   0.005886   0.000146   0.000146  -0.000691   0.002151
     3  H   -0.003745  -0.003745  -0.000018  -0.000018   0.005947  -0.000175
     4  C    0.371290  -0.005344  -0.027114  -0.000123  -0.036735  -0.032554
     5  C   -0.005344   0.371290  -0.000123  -0.027114   0.000071   0.000027
     6  C   -0.039046   0.000078   0.369979   0.000001   0.375552   0.376495
     7  C    0.000078  -0.039046   0.000001   0.369979  -0.000001   0.000001
     8  H   -0.000016  -0.000016  -0.000026  -0.000026   0.000091   0.000338
     9  H   -0.000008  -0.000175  -0.000093   0.000000   0.000511   0.003064
    10  H   -0.000175  -0.000008   0.000000  -0.000093  -0.000035  -0.000110
    11  H   -0.037657  -0.000339  -0.001995   0.000003   0.005304  -0.004809
    12  H   -0.000339  -0.037657   0.000003  -0.001995   0.000008   0.000003
    13  H    0.616677   0.007076  -0.003938  -0.000007  -0.003524   0.005036
    14  H    0.007076   0.616677  -0.000007  -0.003938   0.000001   0.000002
    15  H   -0.003938  -0.000007   0.580734   0.000000  -0.030851  -0.030945
    16  H   -0.000007  -0.003938   0.000000   0.580734   0.000000   0.000000
    17  H   -0.003524   0.000001  -0.030851   0.000000   0.582462  -0.032511
    18  H    0.005036   0.000002  -0.030945   0.000000  -0.032511   0.574359
    19  H    0.000001  -0.003524   0.000000  -0.030851  -0.000002   0.000000
    20  H    0.000002   0.005036   0.000000  -0.030945   0.000000   0.000000
             19         20
     1  C   -0.004799  -0.005394
     2  C   -0.000691   0.002151
     3  H    0.005947  -0.000175
     4  C    0.000071   0.000027
     5  C   -0.036735  -0.032554
     6  C   -0.000001   0.000001
     7  C    0.375552   0.376495
     8  H    0.000091   0.000338
     9  H   -0.000035  -0.000110
    10  H    0.000511   0.003064
    11  H    0.000008   0.000003
    12  H    0.005304  -0.004809
    13  H    0.000001   0.000002
    14  H   -0.003524   0.005036
    15  H    0.000000   0.000000
    16  H   -0.030851  -0.030945
    17  H   -0.000002   0.000000
    18  H    0.000000   0.000000
    19  H    0.582462  -0.032511
    20  H   -0.032511   0.574359
 Mulliken atomic charges:
              1
     1  C   -0.055242
     2  C   -0.450686
     3  H    0.112142
     4  C   -0.242778
     5  C   -0.242778
     6  C   -0.446083
     7  C   -0.446083
     8  H    0.134760
     9  H    0.143394
    10  H    0.143394
    11  H    0.124471
    12  H    0.124471
    13  H    0.126047
    14  H    0.126047
    15  H    0.140239
    16  H    0.140239
    17  H    0.139202
    18  H    0.145021
    19  H    0.139202
    20  H    0.145021
 Sum of Mulliken atomic charges =   0.00000
 Mulliken charges with hydrogens summed into heavy atoms:
              1
     1  C    0.056900
     2  C   -0.029137
     4  C    0.007740
     5  C    0.007740
     6  C   -0.021621
     7  C   -0.021621
 Sum of Mulliken charges with hydrogens summed into heavy atoms =   0.00000
 Electronic spatial extent (au):  <R**2>=            851.8868
 Charge=              0.0000 electrons
 Dipole moment (field-independent basis, Debye):
    X=              0.0491    Y=             -0.0218    Z=              0.0000  Tot=              0.0537
 Quadrupole moment (field-independent basis, Debye-Ang):
   XX=            -41.3429   YY=            -41.6445   ZZ=            -42.1772
   XY=              0.1855   XZ=              0.0000   YZ=              0.0000
 Traceless Quadrupole moment (field-independent basis, Debye-Ang):
   XX=              0.3786   YY=              0.0770   ZZ=             -0.4556
   XY=              0.1855   XZ=              0.0000   YZ=              0.0000
 Octapole moment (field-independent basis, Debye-Ang**2):
  XXX=              1.0235  YYY=              0.3909  ZZZ=              0.0000  XYY=              0.2268
  XXY=             -0.5375  XXZ=              0.0000  XZZ=             -0.4497  YZZ=             -1.2114
  YYZ=              0.0000  XYZ=              0.0000
 Hexadecapole moment (field-independent basis, Debye-Ang**3):
 XXXX=           -177.9859 YYYY=           -176.0635 ZZZZ=           -842.7688 XXXY=             35.5651
 XXXZ=              0.0000 YYYX=             34.7583 YYYZ=              0.0000 ZZZX=              0.0000
 ZZZY=              0.0000 XXYY=            -56.8403 XXZZ=           -167.2330 YYZZ=           -165.6221
 XXYZ=              0.0000 YYXZ=              0.0000 ZZXY=              8.3355
 N-N= 2.557015106643D+02 E-N=-1.058251854758D+03  KE= 2.345347750627D+02
 Symmetry A'   KE= 1.524561506139D+02
 Symmetry A"   KE= 8.207862444883D+01
 Calling FoFJK, ICntrl=      2127 FMM=F ISym2X=1 I1Cent= 0 IOpClX= 0 NMat=1 NMatS=1 NMatT=0.
 ***** Axes restored to original set *****
 -------------------------------------------------------------------
 Center     Atomic                   Forces (Hartrees/Bohr)
 Number     Number              X              Y              Z
 -------------------------------------------------------------------
      1        6           0.002884760    0.003133186    0.000000000
      2        6          -0.004483553    0.003018816    0.000000000
      3        1          -0.003499752   -0.003054841    0.000000000
      4        6           0.000899621   -0.004805565    0.000842847
      5        6           0.000899621   -0.004805565   -0.000842847
      6        6           0.000455999    0.001150924    0.004005152
      7        6           0.000455999    0.001150924   -0.004005152
      8        1           0.002788007    0.003769363    0.000000000
      9        1          -0.000027882   -0.002646728   -0.003875165
     10        1          -0.000027882   -0.002646728    0.003875165
     11        1           0.003704782    0.002826543    0.000465718
     12        1           0.003704782    0.002826543   -0.000465718
     13        1          -0.004021571    0.001771063    0.000750471
     14        1          -0.004021571    0.001771063   -0.000750471
     15        1          -0.000893448    0.002908717   -0.003081402
     16        1          -0.000893448    0.002908717    0.003081402
     17        1          -0.003104874   -0.002988198    0.000800973
     18        1           0.004142641   -0.001650018   -0.000324199
     19        1          -0.003104874   -0.002988198   -0.000800973
     20        1           0.004142641   -0.001650018    0.000324199
 -------------------------------------------------------------------
 Cartesian Forces:  Max     0.004805565 RMS     0.002642135

 GradGradGradGradGradGradGradGradGradGradGradGradGradGradGradGradGradGrad
 Berny optimization.
 Internal  Forces:  Max     0.004663401 RMS     0.001847438
 Search for a local minimum.
 Step number   1 out of a maximum of  110
 All quantities printed in internal units (Hartrees-Bohrs-Radians)
 Mixed Optimization -- RFO/linear search
 Second derivative matrix not updated -- first step.
 ITU=  0
 DSYEVD returned Info=         109 IAlg= 4 N=    54 NDim=    54 NE2=   149101189 trying DSYEV.
     Eigenvalues ---    0.00264   0.00264   0.00326   0.00345   0.00345
     Eigenvalues ---    0.03290   0.03290   0.03453   0.04656   0.04744
     Eigenvalues ---    0.04744   0.04876   0.05385   0.05404   0.05404
     Eigenvalues ---    0.05526   0.05531   0.05531   0.08655   0.08655
     Eigenvalues ---    0.12441   0.12441   0.16000   0.16000   0.16000
     Eigenvalues ---    0.16000   0.16000   0.16000   0.16000   0.16000
     Eigenvalues ---    0.16000   0.16626   0.16989   0.21941   0.21941
     Eigenvalues ---    0.28699   0.28699   0.29124   0.29257   0.29257
     Eigenvalues ---    0.32545   0.32824   0.32824   0.33006   0.33006
     Eigenvalues ---    0.33033   0.33226   0.33226   0.33376   0.33376
     Eigenvalues ---    0.33468   0.33468   0.33471   0.33471
 RFO step:  Lambda=-1.27073221D-03 EMin= 2.63596037D-03
 Linear search not attempted -- first point.
 Iteration  1 RMS(Cart)=  0.03674828 RMS(Int)=  0.00035952
 Iteration  2 RMS(Cart)=  0.00069288 RMS(Int)=  0.00002251
 Iteration  3 RMS(Cart)=  0.00000018 RMS(Int)=  0.00002251
 ClnCor:  largest displacement from symmetrization is 1.55D-09 for atom     8.
 Variable       Old X    -DE/DX   Delta X   Delta X   Delta X     New X
                                 (Linear)    (Quad)   (Total)
    R1        2.89746   0.00225   0.00000   0.00770   0.00770   2.90516
    R2        2.09857  -0.00464   0.00000  -0.01421  -0.01421   2.08437
    R3        2.90635   0.00341   0.00000   0.01182   0.01182   2.91818
    R4        2.90635   0.00341   0.00000   0.01182   0.01182   2.91818
    R5        2.08993  -0.00458   0.00000  -0.01382  -0.01382   2.07612
    R6        2.08232  -0.00466   0.00000  -0.01388  -0.01388   2.06844
    R7        2.08232  -0.00466   0.00000  -0.01388  -0.01388   2.06844
    R8        2.89471   0.00091   0.00000   0.00311   0.00311   2.89781
    R9        2.09361  -0.00462   0.00000  -0.01403  -0.01403   2.07958
   R10        2.09040  -0.00441   0.00000  -0.01332  -0.01332   2.07709
   R11        2.89471   0.00091   0.00000   0.00311   0.00311   2.89781
   R12        2.09361  -0.00462   0.00000  -0.01403  -0.01403   2.07958
   R13        2.09040  -0.00441   0.00000  -0.01332  -0.01332   2.07709
   R14        2.08395  -0.00431   0.00000  -0.01287  -0.01287   2.07108
   R15        2.08657  -0.00432   0.00000  -0.01294  -0.01294   2.07363
   R16        2.08238  -0.00443   0.00000  -0.01319  -0.01319   2.06919
   R17        2.08395  -0.00431   0.00000  -0.01287  -0.01287   2.07108
   R18        2.08657  -0.00432   0.00000  -0.01294  -0.01294   2.07363
   R19        2.08238  -0.00443   0.00000  -0.01319  -0.01319   2.06919
    A1        1.88898  -0.00030   0.00000  -0.00528  -0.00524   1.88373
    A2        1.94854   0.00044   0.00000   0.00740   0.00734   1.95589
    A3        1.94854   0.00044   0.00000   0.00740   0.00734   1.95589
    A4        1.87876  -0.00019   0.00000  -0.00683  -0.00681   1.87194
    A5        1.87876  -0.00019   0.00000  -0.00683  -0.00681   1.87194
    A6        1.91734  -0.00024   0.00000   0.00289   0.00280   1.92014
    A7        1.92300   0.00115   0.00000   0.00727   0.00726   1.93026
    A8        1.95020   0.00043   0.00000   0.00258   0.00257   1.95277
    A9        1.95020   0.00043   0.00000   0.00258   0.00257   1.95277
   A10        1.88347  -0.00082   0.00000  -0.00492  -0.00493   1.87854
   A11        1.88347  -0.00082   0.00000  -0.00492  -0.00493   1.87854
   A12        1.87065  -0.00050   0.00000  -0.00339  -0.00339   1.86726
   A13        2.00212   0.00244   0.00000   0.01327   0.01324   2.01536
   A14        1.89642  -0.00033   0.00000   0.00357   0.00355   1.89997
   A15        1.89082  -0.00043   0.00000  -0.00040  -0.00036   1.89045
   A16        1.91424  -0.00090   0.00000  -0.00328  -0.00336   1.91088
   A17        1.90059  -0.00103   0.00000  -0.00750  -0.00753   1.89306
   A18        1.85383   0.00011   0.00000  -0.00717  -0.00720   1.84663
   A19        2.00212   0.00244   0.00000   0.01327   0.01324   2.01536
   A20        1.89642  -0.00033   0.00000   0.00357   0.00355   1.89997
   A21        1.89082  -0.00043   0.00000  -0.00040  -0.00036   1.89045
   A22        1.91424  -0.00090   0.00000  -0.00328  -0.00336   1.91088
   A23        1.90059  -0.00103   0.00000  -0.00750  -0.00753   1.89306
   A24        1.85383   0.00011   0.00000  -0.00717  -0.00720   1.84663
   A25        1.93579   0.00024   0.00000   0.00100   0.00100   1.93679
   A26        1.93324   0.00086   0.00000   0.00559   0.00558   1.93881
   A27        1.95473   0.00059   0.00000   0.00390   0.00389   1.95862
   A28        1.88040  -0.00062   0.00000  -0.00434  -0.00434   1.87607
   A29        1.87473  -0.00048   0.00000  -0.00341  -0.00342   1.87131
   A30        1.88197  -0.00069   0.00000  -0.00341  -0.00343   1.87854
   A31        1.93579   0.00024   0.00000   0.00100   0.00100   1.93679
   A32        1.93324   0.00086   0.00000   0.00559   0.00558   1.93881
   A33        1.95473   0.00059   0.00000   0.00390   0.00389   1.95862
   A34        1.88040  -0.00062   0.00000  -0.00434  -0.00434   1.87607
   A35        1.87473  -0.00048   0.00000  -0.00341  -0.00342   1.87131
   A36        1.88197  -0.00069   0.00000  -0.00341  -0.00343   1.87854
    D1        3.14159   0.00000   0.00000   0.00000   0.00000   3.14159
    D2       -1.04795   0.00002   0.00000   0.00038   0.00039  -1.04757
    D3        1.04795  -0.00002   0.00000  -0.00038  -0.00039   1.04757
    D4       -1.07693  -0.00017   0.00000  -0.00734  -0.00736  -1.08429
    D5        1.01671  -0.00015   0.00000  -0.00696  -0.00697   1.00974
    D6        3.11262  -0.00019   0.00000  -0.00772  -0.00774   3.10488
    D7        1.07693   0.00017   0.00000   0.00734   0.00736   1.08429
    D8       -3.11262   0.00019   0.00000   0.00772   0.00774  -3.10488
    D9       -1.01671   0.00015   0.00000   0.00696   0.00697  -1.00974
   D10       -1.08370   0.00008   0.00000  -0.02930  -0.02931  -1.11300
   D11        1.06543   0.00037   0.00000  -0.02150  -0.02147   1.04396
   D12        3.07235   0.00009   0.00000  -0.02828  -0.02829   3.04406
   D13        0.98707  -0.00016   0.00000  -0.03574  -0.03576   0.95131
   D14        3.13619   0.00013   0.00000  -0.02794  -0.02792   3.10828
   D15       -1.14008  -0.00014   0.00000  -0.03472  -0.03474  -1.17481
   D16        3.02805  -0.00062   0.00000  -0.04619  -0.04621   2.98184
   D17       -1.10601  -0.00034   0.00000  -0.03839  -0.03837  -1.14438
   D18        0.90090  -0.00061   0.00000  -0.04517  -0.04519   0.85572
   D19        1.08370  -0.00008   0.00000   0.02930   0.02931   1.11300
   D20       -1.06543  -0.00037   0.00000   0.02150   0.02147  -1.04396
   D21       -3.07235  -0.00009   0.00000   0.02828   0.02829  -3.04406
   D22       -0.98707   0.00016   0.00000   0.03574   0.03576  -0.95131
   D23       -3.13619  -0.00013   0.00000   0.02794   0.02792  -3.10828
   D24        1.14008   0.00014   0.00000   0.03472   0.03474   1.17481
   D25       -3.02805   0.00062   0.00000   0.04619   0.04621  -2.98184
   D26        1.10601   0.00034   0.00000   0.03839   0.03837   1.14438
   D27       -0.90090   0.00061   0.00000   0.04517   0.04519  -0.85572
   D28       -3.04534   0.00008   0.00000  -0.00065  -0.00065  -3.04599
   D29       -0.95817   0.00002   0.00000  -0.00178  -0.00178  -0.95995
   D30        1.14356   0.00014   0.00000   0.00038   0.00039   1.14395
   D31        1.09830  -0.00054   0.00000  -0.01234  -0.01232   1.08598
   D32       -3.09771  -0.00060   0.00000  -0.01347  -0.01345  -3.11117
   D33       -0.99598  -0.00048   0.00000  -0.01131  -0.01129  -1.00727
   D34       -0.92353   0.00041   0.00000   0.00228   0.00226  -0.92127
   D35        1.16364   0.00035   0.00000   0.00116   0.00113   1.16477
   D36       -3.01781   0.00047   0.00000   0.00331   0.00329  -3.01451
   D37        3.04534  -0.00008   0.00000   0.00065   0.00065   3.04599
   D38        0.95817  -0.00002   0.00000   0.00178   0.00178   0.95995
   D39       -1.14356  -0.00014   0.00000  -0.00038  -0.00039  -1.14395
   D40       -1.09830   0.00054   0.00000   0.01234   0.01232  -1.08598
   D41        3.09771   0.00060   0.00000   0.01347   0.01345   3.11117
   D42        0.99598   0.00048   0.00000   0.01131   0.01129   1.00727
   D43        0.92353  -0.00041   0.00000  -0.00228  -0.00226   0.92127
   D44       -1.16364  -0.00035   0.00000  -0.00116  -0.00113  -1.16477
   D45        3.01781  -0.00047   0.00000  -0.00331  -0.00329   3.01451
         Item               Value     Threshold  Converged?
 Maximum Force            0.004663     0.000450     NO 
 RMS     Force            0.001847     0.000300     NO 
 Maximum Displacement     0.104861     0.001800     NO 
 RMS     Displacement     0.036575     0.001200     NO 
 Predicted change in Energy=-6.530712D-04
 GradGradGradGradGradGradGradGradGradGradGradGradGradGradGradGradGradGrad

                          Input orientation:                          
 ---------------------------------------------------------------------
 Center     Atomic      Atomic             Coordinates (Angstroms)
 Number     Number       Type             X           Y           Z
 ---------------------------------------------------------------------
      1          6           0        0.086616    0.182604    0.000000
      2          6           0       -1.272463    0.901170    0.000000
      3          1           0        0.877314    0.951632    0.000000
      4          6           0        0.286678   -0.680060    1.265084
      5          6           0        0.286678   -0.680060   -1.265084
      6          6           0        0.333689    0.092035    2.589151
      7          6           0        0.333689    0.092035   -2.589151
      8          1           0       -2.094807    0.172646    0.000000
      9          1           0       -1.395939    1.540538    0.879799
     10          1           0       -1.395939    1.540538   -0.879799
     11          1           0       -0.511133   -1.436726    1.309514
     12          1           0       -0.511133   -1.436726   -1.309514
     13          1           0        1.225543   -1.241031    1.155694
     14          1           0        1.225543   -1.241031   -1.155694
     15          1           0        0.573854   -0.575794    3.424298
     16          1           0        0.573854   -0.575794   -3.424298
     17          1           0        1.101397    0.875618    2.562176
     18          1           0       -0.622277    0.572193    2.822669
     19          1           0        1.101397    0.875618   -2.562176
     20          1           0       -0.622277    0.572193   -2.822669
 ---------------------------------------------------------------------
                    Distance matrix (angstroms):
                    1          2          3          4          5
     1  C    0.000000
     2  C    1.537346   0.000000
     3  H    1.103000   2.150370   0.000000
     4  C    1.544232   2.555709   2.147489   0.000000
     5  C    1.544232   2.555709   2.147489   2.530169   0.000000
     6  C    2.602489   3.152479   2.781750   1.533457   3.931090
     7  C    2.602489   3.152479   2.781750   3.931090   1.533457
     8  H    2.181446   1.098633   3.072511   2.828254   2.828254
     9  H    2.194538   1.094570   2.507695   2.812597   3.516074
    10  H    2.194538   1.094570   2.507695   3.516074   2.812597
    11  H    2.166647   2.785715   3.057265   1.100464   2.799572
    12  H    2.166647   2.785715   3.057265   2.799572   1.100464
    13  H    2.158592   3.487791   2.502931   1.099146   2.656374
    14  H    2.158592   3.487791   2.502931   2.656374   1.099146
    15  H    3.540959   4.161265   3.761773   2.180721   4.699325
    16  H    3.540959   4.161265   3.761773   4.699325   2.180721
    17  H    2.841619   3.492938   2.573080   2.183197   4.210917
    18  H    2.936285   2.915206   3.218728   2.195542   4.370820
    19  H    2.841619   3.492938   2.573080   4.210917   2.183197
    20  H    2.936285   2.915206   3.218728   4.370820   2.195542
                    6          7          8          9         10
     6  C    0.000000
     7  C    5.178301   0.000000
     8  H    3.550746   3.550746   0.000000
     9  H    2.830487   4.138041   1.770195   0.000000
    10  H    4.138041   2.830487   1.770195   1.759598   0.000000
    11  H    2.165249   4.272051   2.610160   3.135545   3.800010
    12  H    4.272051   2.165249   2.610160   3.800010   3.135545
    13  H    2.151108   4.073859   3.789306   3.832155   4.330419
    14  H    4.073859   2.151108   3.789306   4.330419   3.832155
    15  H    1.095968   6.055183   4.405421   3.851418   5.184997
    16  H    6.055183   1.095968   4.405421   5.184997   3.851418
    17  H    1.097317   5.266834   4.156277   3.083699   4.304184
    18  H    1.094967   5.516540   3.208651   2.304558   3.904422
    19  H    5.266834   1.097317   4.156277   4.304184   3.083699
    20  H    5.516540   1.094967   3.208651   3.904422   2.304558
                   11         12         13         14         15
    11  H    0.000000
    12  H    2.619029   0.000000
    13  H    1.754423   3.021853   0.000000
    14  H    3.021853   1.754423   2.311388   0.000000
    15  H    2.527986   4.932280   2.452306   4.673711   0.000000
    16  H    4.932280   2.527986   4.673711   2.452306   6.848597
    17  H    3.084858   4.789277   2.544368   4.279974   1.768659
    18  H    2.517488   4.595982   3.079127   4.746535   1.763678
    19  H    4.789277   3.084858   4.279974   2.544368   6.182457
    20  H    4.595982   2.517488   4.746535   3.079127   6.463219
                   16         17         18         19         20
    16  H    0.000000
    17  H    6.182457   0.000000
    18  H    6.463219   1.769456   0.000000
    19  H    1.768659   5.124352   5.662126   0.000000
    20  H    1.763678   5.662126   5.645338   1.769456   0.000000
 Stoichiometry    C6H14
 Framework group  CS[SG(C2H2),X(C4H12)]
 Deg. of freedom    29
 Full point group                 CS      NOp   2
 Largest Abelian subgroup         CS      NOp   2
 Largest concise Abelian subgroup CS      NOp   2
                         Standard orientation:                         
 ---------------------------------------------------------------------
 Center     Atomic      Atomic             Coordinates (Angstroms)
 Number     Number       Type             X           Y           Z
 ---------------------------------------------------------------------
      1          6           0       -0.078307   -0.186904    0.000000
      2          6           0        1.321931   -0.821543    0.000000
      3          1           0       -0.820806   -1.002566    0.000000
      4          6           0       -0.330428    0.662006    1.265084
      5          6           0       -0.330428    0.662006   -1.265084
      6          6           0       -0.330428   -0.111519    2.589151
      7          6           0       -0.330428   -0.111519   -2.589151
      8          1           0        2.098479   -0.044389    0.000000
      9          1           0        1.484036   -1.452226    0.879799
     10          1           0        1.484036   -1.452226   -0.879799
     11          1           0        0.419922    1.465761    1.309514
     12          1           0        0.419922    1.465761   -1.309514
     13          1           0       -1.301651    1.164881    1.155694
     14          1           0       -1.301651    1.164881   -1.155694
     15          1           0       -0.610736    0.540480    3.424298
     16          1           0       -0.610736    0.540480   -3.424298
     17          1           0       -1.049094   -0.940311    2.562176
     18          1           0        0.652953   -0.532690    2.822669
     19          1           0       -1.049094   -0.940311   -2.562176
     20          1           0        0.652953   -0.532690   -2.822669
 ---------------------------------------------------------------------
 Rotational constants (GHZ):      6.4755473      1.8277892      1.5723461
 Standard basis: 6-31G(d) (6D, 7F)
 There are    68 symmetry adapted basis functions of A'  symmetry.
 There are    50 symmetry adapted basis functions of A"  symmetry.
 Integral buffers will be    131072 words long.
 Raffenetti 2 integral format.
 Two-electron integral symmetry is turned on.
   118 basis functions,   224 primitive gaussians,   118 cartesian basis functions
    25 alpha electrons       25 beta electrons
       nuclear repulsion energy       255.0305649825 Hartrees.
 NAtoms=   20 NActive=   20 NUniq=   12 SFac= 2.78D+00 NAtFMM=   50 NAOKFM=F Big=F
 One-electron integrals computed using PRISM.
 NBasis=   118 RedAO= T  NBF=    68    50
 NBsUse=   118 1.00D-06 NBFU=    68    50
 Initial guess read from the read-write file.
 B after Tr=     0.000000    0.000000    0.000000
         Rot=    1.000000    0.000000    0.000000    0.000000 Ang=   0.00 deg.
 Initial guess orbital symmetries:
       Occupied  (A') (A") (A') (A") (A') (A') (A') (A") (A') (A')
                 (A") (A') (A') (A") (A") (A') (A') (A') (A") (A')
                 (A") (A") (A') (A') (A")
       Virtual   (A') (A') (A") (A') (A") (A') (A') (A') (A") (A")
                 (A') (A") (A') (A") (A') (A') (A") (A") (A') (A')
                 (A') (A") (A') (A") (A") (A') (A") (A') (A') (A")
                 (A') (A') (A") (A') (A') (A") (A') (A') (A') (A")
                 (A") (A') (A") (A') (A") (A') (A") (A') (A") (A")
                 (A') (A') (A') (A") (A") (A') (A") (A") (A') (A')
                 (A") (A') (A') (A') (A") (A') (A") (A") (A') (A")
                 (A') (A") (A') (A') (A') (A") (A') (A") (A") (A')
                 (A') (A") (A') (A") (A') (A') (A") (A') (A") (A')
                 (A') (A") (A')
 Harris functional with IExCor=  402 diagonalized for initial guess.
 ExpMin= 1.61D-01 ExpMax= 3.05D+03 ExpMxC= 4.57D+02 IAcc=1 IRadAn=         1 AccDes= 0.00D+00
 HarFok:  IExCor=  402 AccDes= 0.00D+00 IRadAn=         1 IDoV= 1
 ScaDFX=  1.000000  1.000000  1.000000  1.000000
 FoFCou: FMM=F IPFlag=           0 FMFlag=      100000 FMFlg1=           0
         NFxFlg=           0 DoJE=T BraDBF=F KetDBF=T FulRan=T
         Omega=  0.000000  0.000000  1.000000  0.000000  0.000000 ICntrl=     500 IOpCl=  0
         NMat0=    1 NMatS0=    1 NMatT0=    0 NMatD0=    1 NMtDS0=    0 NMtDT0=    0
         I1Cent=           4 NGrid=           0.
 Petite list used in FoFCou.
 Requested convergence on RMS density matrix=1.00D-08 within 128 cycles.
 Requested convergence on MAX density matrix=1.00D-06.
 Requested convergence on             energy=1.00D-06.
 No special actions if energy rises.
 Keep R1 ints in memory in canonical form, NReq=25818817.
 Integral accuracy reduced to 1.0D-05 until final iterations.
 Initial convergence to 1.0D-05 achieved.  Increase integral accuracy.
 SCF Done:  E(RB3LYP) =  -237.083173877     A.U. after   13 cycles
             Convg  =    0.6200D-08             -V/T =  2.0105
 Calling FoFJK, ICntrl=      2127 FMM=F ISym2X=1 I1Cent= 0 IOpClX= 0 NMat=1 NMatS=1 NMatT=0.
 ***** Axes restored to original set *****
 -------------------------------------------------------------------
 Center     Atomic                   Forces (Hartrees/Bohr)
 Number     Number              X              Y              Z
 -------------------------------------------------------------------
      1        6           0.000966956    0.000710641    0.000000000
      2        6          -0.000047534   -0.000880231    0.000000000
      3        1          -0.000242300    0.000134110    0.000000000
      4        6          -0.000081704   -0.000740108   -0.000433375
      5        6          -0.000081704   -0.000740108    0.000433375
      6        6          -0.000166789    0.000524284   -0.000449448
      7        6          -0.000166789    0.000524284    0.000449448
      8        1          -0.000038995    0.000036002    0.000000000
      9        1           0.000268209   -0.000005532    0.000559215
     10        1           0.000268209   -0.000005532   -0.000559215
     11        1          -0.000067700    0.000045677    0.000235217
     12        1          -0.000067700    0.000045677   -0.000235217
     13        1           0.000004113    0.000161571   -0.000164419
     14        1           0.000004113    0.000161571    0.000164419
     15        1          -0.000022459   -0.000324640   -0.000161300
     16        1          -0.000022459   -0.000324640    0.000161300
     17        1           0.000057828    0.000026636    0.000020334
     18        1          -0.000310561    0.000311852   -0.000100137
     19        1           0.000057828    0.000026636   -0.000020334
     20        1          -0.000310561    0.000311852    0.000100137
 -------------------------------------------------------------------
 Cartesian Forces:  Max     0.000966956 RMS     0.000328389

 GradGradGradGradGradGradGradGradGradGradGradGradGradGradGradGradGradGrad
 Berny optimization.
 Using GEDIIS/GDIIS optimizer.
 Internal  Forces:  Max     0.001351096 RMS     0.000344556
 Search for a local minimum.
 Step number   2 out of a maximum of  110
 All quantities printed in internal units (Hartrees-Bohrs-Radians)
 Mixed Optimization -- En-DIIS/RFO-DIIS
 Update second derivatives using D2CorX and points    1    2
 DE= -5.47D-04 DEPred=-6.53D-04 R= 8.37D-01
 SS=  1.41D+00  RLast= 1.66D-01 DXNew= 5.0454D-01 4.9671D-01
 Trust test= 8.37D-01 RLast= 1.66D-01 DXMaxT set to 4.97D-01
 ITU=  1  0
 Use linear search instead of GDIIS.
     Eigenvalues ---    0.00264   0.00281   0.00326   0.00344   0.00345
     Eigenvalues ---    0.03208   0.03222   0.03440   0.04665   0.04722
     Eigenvalues ---    0.04792   0.04970   0.05355   0.05361   0.05362
     Eigenvalues ---    0.05469   0.05499   0.05499   0.08761   0.08795
     Eigenvalues ---    0.12531   0.12541   0.15765   0.16000   0.16000
     Eigenvalues ---    0.16000   0.16000   0.16000   0.16000   0.16000
     Eigenvalues ---    0.16224   0.16769   0.17233   0.21943   0.22732
     Eigenvalues ---    0.28699   0.28959   0.29213   0.29257   0.29316
     Eigenvalues ---    0.31889   0.32649   0.32824   0.32896   0.33006
     Eigenvalues ---    0.33027   0.33187   0.33226   0.33343   0.33376
     Eigenvalues ---    0.33468   0.33469   0.33471   0.34234
 RFO step:  Lambda=-6.48916148D-05 EMin= 2.63596037D-03
 Quartic linear search produced a step of -0.11938.
 Iteration  1 RMS(Cart)=  0.01608440 RMS(Int)=  0.00011041
 Iteration  2 RMS(Cart)=  0.00015236 RMS(Int)=  0.00000360
 Iteration  3 RMS(Cart)=  0.00000001 RMS(Int)=  0.00000360
 ClnCor:  largest displacement from symmetrization is 4.79D-11 for atom     8.
 Variable       Old X    -DE/DX   Delta X   Delta X   Delta X     New X
                                 (Linear)    (Quad)   (Total)
    R1        2.90516  -0.00080  -0.00092  -0.00106  -0.00198   2.90318
    R2        2.08437  -0.00008   0.00170  -0.00272  -0.00102   2.08335
    R3        2.91818  -0.00094  -0.00141  -0.00081  -0.00222   2.91596
    R4        2.91818  -0.00094  -0.00141  -0.00081  -0.00222   2.91596
    R5        2.07612   0.00000   0.00165  -0.00242  -0.00077   2.07534
    R6        2.06844   0.00042   0.00166  -0.00134   0.00031   2.06875
    R7        2.06844   0.00042   0.00166  -0.00134   0.00031   2.06875
    R8        2.89781  -0.00034  -0.00037  -0.00048  -0.00085   2.89697
    R9        2.07958   0.00003   0.00168  -0.00239  -0.00072   2.07886
   R10        2.07709  -0.00006   0.00159  -0.00251  -0.00092   2.07616
   R11        2.89781  -0.00034  -0.00037  -0.00048  -0.00085   2.89697
   R12        2.07958   0.00003   0.00168  -0.00239  -0.00072   2.07886
   R13        2.07709  -0.00006   0.00159  -0.00251  -0.00092   2.07616
   R14        2.07108   0.00007   0.00154  -0.00208  -0.00054   2.07054
   R15        2.07363   0.00006   0.00155  -0.00212  -0.00058   2.07305
   R16        2.06919   0.00039   0.00157  -0.00130   0.00027   2.06946
   R17        2.07108   0.00007   0.00154  -0.00208  -0.00054   2.07054
   R18        2.07363   0.00006   0.00155  -0.00212  -0.00058   2.07305
   R19        2.06919   0.00039   0.00157  -0.00130   0.00027   2.06946
    A1        1.88373   0.00009   0.00063  -0.00119  -0.00056   1.88317
    A2        1.95589  -0.00034  -0.00088  -0.00253  -0.00340   1.95248
    A3        1.95589  -0.00034  -0.00088  -0.00253  -0.00340   1.95248
    A4        1.87194   0.00010   0.00081   0.00251   0.00331   1.87526
    A5        1.87194   0.00010   0.00081   0.00251   0.00331   1.87526
    A6        1.92014   0.00042  -0.00033   0.00164   0.00130   1.92144
    A7        1.93026   0.00026  -0.00087   0.00268   0.00181   1.93208
    A8        1.95277  -0.00051  -0.00031  -0.00236  -0.00267   1.95010
    A9        1.95277  -0.00051  -0.00031  -0.00236  -0.00267   1.95010
   A10        1.87854   0.00013   0.00059  -0.00015   0.00044   1.87898
   A11        1.87854   0.00013   0.00059  -0.00015   0.00044   1.87898
   A12        1.86726   0.00056   0.00040   0.00247   0.00287   1.87013
   A13        2.01536  -0.00135  -0.00158  -0.00388  -0.00547   2.00990
   A14        1.89997   0.00054  -0.00042   0.00167   0.00124   1.90121
   A15        1.89045   0.00030   0.00004   0.00159   0.00163   1.89208
   A16        1.91088   0.00016   0.00040  -0.00222  -0.00181   1.90907
   A17        1.89306   0.00058   0.00090   0.00231   0.00322   1.89628
   A18        1.84663  -0.00013   0.00086   0.00098   0.00184   1.84847
   A19        2.01536  -0.00135  -0.00158  -0.00388  -0.00547   2.00990
   A20        1.89997   0.00054  -0.00042   0.00167   0.00124   1.90121
   A21        1.89045   0.00030   0.00004   0.00159   0.00163   1.89208
   A22        1.91088   0.00016   0.00040  -0.00222  -0.00181   1.90907
   A23        1.89306   0.00058   0.00090   0.00231   0.00322   1.89628
   A24        1.84663  -0.00013   0.00086   0.00098   0.00184   1.84847
   A25        1.93679  -0.00048  -0.00012  -0.00252  -0.00264   1.93415
   A26        1.93881   0.00011  -0.00067   0.00160   0.00094   1.93975
   A27        1.95862  -0.00005  -0.00046   0.00045  -0.00001   1.95860
   A28        1.87607   0.00018   0.00052   0.00017   0.00069   1.87676
   A29        1.87131   0.00028   0.00041   0.00092   0.00133   1.87264
   A30        1.87854  -0.00002   0.00041  -0.00061  -0.00020   1.87834
   A31        1.93679  -0.00048  -0.00012  -0.00252  -0.00264   1.93415
   A32        1.93881   0.00011  -0.00067   0.00160   0.00094   1.93975
   A33        1.95862  -0.00005  -0.00046   0.00045  -0.00001   1.95860
   A34        1.87607   0.00018   0.00052   0.00017   0.00069   1.87676
   A35        1.87131   0.00028   0.00041   0.00092   0.00133   1.87264
   A36        1.87854  -0.00002   0.00041  -0.00061  -0.00020   1.87834
    D1        3.14159   0.00000   0.00000   0.00000   0.00000   3.14159
    D2       -1.04757   0.00000  -0.00005   0.00006   0.00001  -1.04755
    D3        1.04757   0.00000   0.00005  -0.00006  -0.00001   1.04755
    D4       -1.08429  -0.00002   0.00088   0.00085   0.00173  -1.08255
    D5        1.00974  -0.00002   0.00083   0.00092   0.00175   1.01148
    D6        3.10488  -0.00002   0.00092   0.00079   0.00172   3.10659
    D7        1.08429   0.00002  -0.00088  -0.00085  -0.00173   1.08255
    D8       -3.10488   0.00002  -0.00092  -0.00079  -0.00172  -3.10659
    D9       -1.00974   0.00002  -0.00083  -0.00092  -0.00175  -1.01148
   D10       -1.11300   0.00006   0.00350   0.00852   0.01202  -1.10098
   D11        1.04396  -0.00028   0.00256   0.00410   0.00666   1.05062
   D12        3.04406   0.00000   0.00338   0.00696   0.01034   3.05440
   D13        0.95131   0.00004   0.00427   0.00720   0.01147   0.96278
   D14        3.10828  -0.00030   0.00333   0.00278   0.00611   3.11438
   D15       -1.17481  -0.00003   0.00415   0.00564   0.00978  -1.16503
   D16        2.98184   0.00044   0.00552   0.01245   0.01797   2.99981
   D17       -1.14438   0.00010   0.00458   0.00803   0.01261  -1.13177
   D18        0.85572   0.00037   0.00539   0.01088   0.01628   0.87200
   D19        1.11300  -0.00006  -0.00350  -0.00852  -0.01202   1.10098
   D20       -1.04396   0.00028  -0.00256  -0.00410  -0.00666  -1.05062
   D21       -3.04406   0.00000  -0.00338  -0.00696  -0.01034  -3.05440
   D22       -0.95131  -0.00004  -0.00427  -0.00720  -0.01147  -0.96278
   D23       -3.10828   0.00030  -0.00333  -0.00278  -0.00611  -3.11438
   D24        1.17481   0.00003  -0.00415  -0.00564  -0.00978   1.16503
   D25       -2.98184  -0.00044  -0.00552  -0.01245  -0.01797  -2.99981
   D26        1.14438  -0.00010  -0.00458  -0.00803  -0.01261   1.13177
   D27       -0.85572  -0.00037  -0.00539  -0.01088  -0.01628  -0.87200
   D28       -3.04599  -0.00008   0.00008  -0.01810  -0.01802  -3.06400
   D29       -0.95995  -0.00009   0.00021  -0.01849  -0.01827  -0.97822
   D30        1.14395  -0.00008  -0.00005  -0.01783  -0.01788   1.12608
   D31        1.08598   0.00007   0.00147  -0.01569  -0.01422   1.07176
   D32       -3.11117   0.00006   0.00161  -0.01608  -0.01448  -3.12564
   D33       -1.00727   0.00007   0.00135  -0.01542  -0.01408  -1.02135
   D34       -0.92127  -0.00018  -0.00027  -0.01693  -0.01719  -0.93846
   D35        1.16477  -0.00019  -0.00013  -0.01732  -0.01745   1.14733
   D36       -3.01451  -0.00017  -0.00039  -0.01666  -0.01705  -3.03157
   D37        3.04599   0.00008  -0.00008   0.01810   0.01802   3.06400
   D38        0.95995   0.00009  -0.00021   0.01849   0.01827   0.97822
   D39       -1.14395   0.00008   0.00005   0.01783   0.01788  -1.12608
   D40       -1.08598  -0.00007  -0.00147   0.01569   0.01422  -1.07176
   D41        3.11117  -0.00006  -0.00161   0.01608   0.01448   3.12564
   D42        1.00727  -0.00007  -0.00135   0.01542   0.01408   1.02135
   D43        0.92127   0.00018   0.00027   0.01693   0.01719   0.93846
   D44       -1.16477   0.00019   0.00013   0.01732   0.01745  -1.14733
   D45        3.01451   0.00017   0.00039   0.01666   0.01705   3.03157
         Item               Value     Threshold  Converged?
 Maximum Force            0.001351     0.000450     NO 
 RMS     Force            0.000345     0.000300     NO 
 Maximum Displacement     0.065743     0.001800     NO 
 RMS     Displacement     0.016104     0.001200     NO 
 Predicted change in Energy=-4.229093D-05
 GradGradGradGradGradGradGradGradGradGradGradGradGradGradGradGradGradGrad

                          Input orientation:                          
 ---------------------------------------------------------------------
 Center     Atomic      Atomic             Coordinates (Angstroms)
 Number     Number       Type             X           Y           Z
 ---------------------------------------------------------------------
      1          6           0        0.099709    0.180077    0.000000
      2          6           0       -1.258512    0.898025    0.000000
      3          1           0        0.889519    0.949244    0.000000
      4          6           0        0.293942   -0.682386    1.264699
      5          6           0        0.293942   -0.682386   -1.264699
      6          6           0        0.319909    0.094773    2.585860
      7          6           0        0.319909    0.094773   -2.585860
      8          1           0       -2.081802    0.171189    0.000000
      9          1           0       -1.379405    1.536702    0.880865
     10          1           0       -1.379405    1.536702   -0.880865
     11          1           0       -0.500372   -1.442466    1.303812
     12          1           0       -0.500372   -1.442466   -1.303812
     13          1           0        1.236977   -1.237152    1.164849
     14          1           0        1.236977   -1.237152   -1.164849
     15          1           0        0.539064   -0.573156    3.426312
     16          1           0        0.539064   -0.573156   -3.426312
     17          1           0        1.092976    0.872983    2.571958
     18          1           0       -0.637405    0.582234    2.798462
     19          1           0        1.092976    0.872983   -2.571958
     20          1           0       -0.637405    0.582234   -2.798462
 ---------------------------------------------------------------------
                    Distance matrix (angstroms):
                    1          2          3          4          5
     1  C    0.000000
     2  C    1.536299   0.000000
     3  H    1.102460   2.148642   0.000000
     4  C    1.543059   2.550936   2.148579   0.000000
     5  C    1.543059   2.550936   2.148579   2.529397   0.000000
     6  C    2.596620   3.134214   2.782310   1.533009   3.928288
     7  C    2.596620   3.134214   2.782310   3.928288   1.533009
     8  H    2.181529   1.098225   3.071501   2.823510   2.823510
     9  H    2.191833   1.094736   2.503807   2.805667   3.511109
    10  H    2.191833   1.094736   2.503807   3.511109   2.805667
    11  H    2.166256   2.784349   3.058104   1.100084   2.793904
    12  H    2.166256   2.784349   3.058104   2.793904   1.100084
    13  H    2.158423   3.484727   2.501585   1.098659   2.664542
    14  H    2.158423   3.484727   2.501585   2.664542   1.098659
    15  H    3.535535   4.139477   3.765652   2.178208   4.698681
    16  H    3.535535   4.139477   3.765652   4.698681   2.178208
    17  H    2.842827   3.484981   2.581120   2.183244   4.216345
    18  H    2.921722   2.883901   3.208985   2.195245   4.356139
    19  H    2.842827   3.484981   2.581120   4.216345   2.183244
    20  H    2.921722   2.883901   3.208985   4.356139   2.195245
                    6          7          8          9         10
     6  C    0.000000
     7  C    5.171719   0.000000
     8  H    3.529975   3.529975   0.000000
     9  H    2.806035   4.121287   1.770285   0.000000
    10  H    4.121287   2.806035   1.770285   1.761731   0.000000
    11  H    2.163241   4.262101   2.608587   3.134808   3.797493
    12  H    4.262101   2.163241   2.608587   3.797493   3.134808
    13  H    2.152744   4.084465   3.788746   3.823659   4.327201
    14  H    4.084465   2.152744   3.788746   4.327201   3.823659
    15  H    1.095682   6.053129   4.377511   3.822476   5.165637
    16  H    6.053129   1.095682   4.377511   5.165637   3.822476
    17  H    1.097013   5.273170   4.145684   3.068059   4.298277
    18  H    1.095111   5.490445   3.175946   2.266881   3.872857
    19  H    5.273170   1.097013   4.145684   4.298277   3.068059
    20  H    5.490445   1.095111   3.175946   3.872857   2.266881
                   11         12         13         14         15
    11  H    0.000000
    12  H    2.607623   0.000000
    13  H    1.754949   3.025694   0.000000
    14  H    3.025694   1.754949   2.329699   0.000000
    15  H    2.518161   4.920386   2.458086   4.691134   0.000000
    16  H    4.920386   2.518161   4.691134   2.458086   6.852625
    17  H    3.083546   4.787656   2.540346   4.293849   1.768631
    18  H    2.520351   4.576772   3.080935   4.746716   1.764426
    19  H    4.787656   3.083546   4.293849   2.540346   6.194948
    20  H    4.576772   2.520351   4.746716   3.080935   6.439474
                   16         17         18         19         20
    16  H    0.000000
    17  H    6.194948   0.000000
    18  H    6.439474   1.769197   0.000000
    19  H    1.768631   5.143916   5.649793   0.000000
    20  H    1.764426   5.649793   5.596924   1.769197   0.000000
 Stoichiometry    C6H14
 Framework group  CS[SG(C2H2),X(C4H12)]
 Deg. of freedom    29
 Full point group                 CS      NOp   2
 Largest Abelian subgroup         CS      NOp   2
 Largest concise Abelian subgroup CS      NOp   2
                         Standard orientation:                         
 ---------------------------------------------------------------------
 Center     Atomic      Atomic             Coordinates (Angstroms)
 Number     Number       Type             X           Y           Z
 ---------------------------------------------------------------------
      1          6           0       -0.095154   -0.183037    0.000000
      2          6           0        1.286284   -0.855228    0.000000
      3          1           0       -0.858838   -0.978150    0.000000
      4          6           0       -0.318080    0.672459    1.264699
      5          6           0       -0.318080    0.672459   -1.264699
      6          6           0       -0.318080   -0.105134    2.585860
      7          6           0       -0.318080   -0.105134   -2.585860
      8          1           0        2.084843   -0.101304    0.000000
      9          1           0        1.428439   -1.489511    0.880865
     10          1           0        1.428439   -1.489511   -0.880865
     11          1           0        0.450408    1.458640    1.303812
     12          1           0        0.450408    1.458640   -1.303812
     13          1           0       -1.279116    1.195423    1.164849
     14          1           0       -1.279116    1.195423   -1.164849
     15          1           0       -0.559418    0.555103    3.426312
     16          1           0       -0.559418    0.555103   -3.426312
     17          1           0       -1.064728   -0.908726    2.571958
     18          1           0        0.654979   -0.560354    2.798462
     19          1           0       -1.064728   -0.908726   -2.571958
     20          1           0        0.654979   -0.560354   -2.798462
 ---------------------------------------------------------------------
 Rotational constants (GHZ):      6.5321334      1.8328944      1.5773890
 Standard basis: 6-31G(d) (6D, 7F)
 There are    68 symmetry adapted basis functions of A'  symmetry.
 There are    50 symmetry adapted basis functions of A"  symmetry.
 Integral buffers will be    131072 words long.
 Raffenetti 2 integral format.
 Two-electron integral symmetry is turned on.
   118 basis functions,   224 primitive gaussians,   118 cartesian basis functions
    25 alpha electrons       25 beta electrons
       nuclear repulsion energy       255.3516660047 Hartrees.
 NAtoms=   20 NActive=   20 NUniq=   12 SFac= 2.78D+00 NAtFMM=   50 NAOKFM=F Big=F
 One-electron integrals computed using PRISM.
 NBasis=   118 RedAO= T  NBF=    68    50
 NBsUse=   118 1.00D-06 NBFU=    68    50
 Initial guess read from the read-write file.
 B after Tr=     0.000000    0.000000    0.000000
         Rot=    1.000000    0.000000    0.000000    0.000000 Ang=   0.00 deg.
 Initial guess orbital symmetries:
       Occupied  (A') (A") (A') (A") (A') (A') (A') (A") (A') (A')
                 (A") (A') (A') (A") (A") (A') (A') (A') (A") (A')
                 (A") (A") (A') (A') (A")
       Virtual   (A') (A") (A') (A') (A') (A") (A') (A') (A") (A")
                 (A') (A") (A') (A") (A') (A') (A") (A") (A') (A')
                 (A") (A') (A') (A") (A') (A") (A") (A') (A') (A")
                 (A') (A') (A") (A') (A') (A") (A') (A') (A') (A")
                 (A") (A') (A") (A") (A') (A') (A") (A') (A") (A")
                 (A') (A') (A') (A") (A") (A') (A") (A") (A') (A')
                 (A') (A") (A') (A') (A") (A') (A") (A") (A') (A")
                 (A') (A") (A') (A') (A') (A") (A') (A") (A") (A')
                 (A') (A") (A') (A") (A') (A') (A") (A') (A") (A')
                 (A') (A") (A')
 Harris functional with IExCor=  402 diagonalized for initial guess.
 ExpMin= 1.61D-01 ExpMax= 3.05D+03 ExpMxC= 4.57D+02 IAcc=1 IRadAn=         1 AccDes= 0.00D+00
 HarFok:  IExCor=  402 AccDes= 0.00D+00 IRadAn=         1 IDoV= 1
 ScaDFX=  1.000000  1.000000  1.000000  1.000000
 FoFCou: FMM=F IPFlag=           0 FMFlag=      100000 FMFlg1=           0
         NFxFlg=           0 DoJE=T BraDBF=F KetDBF=T FulRan=T
         Omega=  0.000000  0.000000  1.000000  0.000000  0.000000 ICntrl=     500 IOpCl=  0
         NMat0=    1 NMatS0=    1 NMatT0=    0 NMatD0=    1 NMtDS0=    0 NMtDT0=    0
         I1Cent=           4 NGrid=           0.
 Petite list used in FoFCou.
 Requested convergence on RMS density matrix=1.00D-08 within 128 cycles.
 Requested convergence on MAX density matrix=1.00D-06.
 Requested convergence on             energy=1.00D-06.
 No special actions if energy rises.
 Keep R1 ints in memory in canonical form, NReq=25818817.
 Integral accuracy reduced to 1.0D-05 until final iterations.
 Initial convergence to 1.0D-05 achieved.  Increase integral accuracy.
 SCF Done:  E(RB3LYP) =  -237.083206728     A.U. after   10 cycles
             Convg  =    0.3348D-08             -V/T =  2.0104
 Calling FoFJK, ICntrl=      2127 FMM=F ISym2X=1 I1Cent= 0 IOpClX= 0 NMat=1 NMatS=1 NMatT=0.
 ***** Axes restored to original set *****
 -------------------------------------------------------------------
 Center     Atomic                   Forces (Hartrees/Bohr)
 Number     Number              X              Y              Z
 -------------------------------------------------------------------
      1        6          -0.000074918   -0.000153049    0.000000000
      2        6          -0.000063368    0.000075797    0.000000000
      3        1           0.000099246    0.000095812    0.000000000
      4        6          -0.000141040    0.000119202   -0.000173005
      5        6          -0.000141040    0.000119202    0.000173005
      6        6           0.000116330   -0.000011909   -0.000016256
      7        6           0.000116330   -0.000011909    0.000016256
      8        1          -0.000148166   -0.000208803    0.000000000
      9        1          -0.000021239    0.000132744    0.000107449
     10        1          -0.000021239    0.000132744   -0.000107449
     11        1          -0.000189054   -0.000104280   -0.000010560
     12        1          -0.000189054   -0.000104280    0.000010560
     13        1           0.000250710   -0.000057238   -0.000018088
     14        1           0.000250710   -0.000057238    0.000018088
     15        1           0.000040301   -0.000187271    0.000226925
     16        1           0.000040301   -0.000187271   -0.000226925
     17        1           0.000192220    0.000163438   -0.000020337
     18        1          -0.000154626    0.000040436   -0.000008671
[...]
 0025455,0.00147099,-0.00125341,-0.00526423,0.55085449,0.00147759,0.011
 71078,-0.02731992,0.00020887,-0.00060722,0.00049270,0.00003288,0.00135
 093,0.00167777,0.00112343,-0.00350422,-0.00246867,0.00103533,0.0508058
 3,-0.16022844,-0.00006142,0.00125341,-0.00045468,0.00538972,0.04444449
 ,0.50153118,-0.02465038,-0.02117532,0.,-0.18700003,-0.12753260,0.,-0.0
 0515719,0.00382835,0.,0.00088400,-0.00175251,0.00099227,0.00088400,-0.
 00175251,-0.00099227,-0.00000299,0.00019884,-0.00020292,-0.00000299,0.
 00019884,0.00020292,0.20680200,0.01155182,0.01060249,0.,-0.12727141,-0
 .16676813,0.,0.00346270,-0.00047801,0.,0.00036515,0.00123566,-0.000276
 67,0.00036515,0.00123566,0.00027667,-0.00006723,0.00010528,-0.00009248
 ,-0.00006723,0.00010528,0.00009248,0.13959212,0.17946945,0.,0.,-0.0010
 4938,0.,0.,-0.05072310,0.,0.,0.00076445,-0.00092536,-0.00096196,0.0003
 6684,0.00092536,0.00096196,0.00036684,0.00007990,0.00008001,-0.0001910
 2,-0.00007990,-0.00008001,-0.00019102,0.,0.,0.04809945,-0.00176718,0.0
 1744816,0.02627955,-0.05161056,0.01425162,0.02135355,0.00113876,-0.000
 87849,0.00014915,0.00104679,-0.00034744,0.00049710,-0.00570887,0.00200
 198,-0.00198149,-0.00017067,0.00024011,-0.00021852,-0.00001071,0.00027
 679,-0.00053760,0.00305112,-0.01327183,-0.02121940,0.05436342,-0.00009
 348,-0.00918020,-0.01166938,0.01471949,-0.13790935,-0.12361935,0.00006
 099,0.00074259,0.00044147,-0.00026636,-0.00016878,-0.00111832,0.003438
 57,-0.00067215,0.00139870,0.00093590,-0.00011528,-0.00040085,0.0001438
 0,-0.00004966,0.00049927,0.00281757,-0.01288830,-0.01839137,-0.0184618
 1,0.14642183,0.00030132,0.00100867,0.00136360,0.02185295,-0.12456626,-
 0.22167635,0.00050793,0.00006028,0.00022140,0.00031883,0.00019868,-0.0
 0026298,0.00026254,0.00063798,0.00055928,-0.00049026,0.00052153,-0.000
 93757,-0.00031115,-0.00011285,-0.00002261,-0.00079504,0.00148777,0.001
 16431,-0.02285572,0.13622458,0.24168828,-0.00176718,0.01744816,-0.0262
 7955,-0.05161057,0.01425162,-0.02135355,0.00113876,-0.00087849,-0.0001
 4915,-0.00570887,0.00200198,0.00198149,0.00104679,-0.00034744,-0.00049
 710,-0.00001071,0.00027679,0.00053760,-0.00017067,0.00024011,0.0002185
 2,0.00305112,-0.01327183,0.02121940,-0.00050281,-0.00223043,0.00210591
 ,0.05436342,-0.00009348,-0.00918020,0.01166938,0.01471949,-0.13790935,
 0.12361935,0.00006099,0.00074259,-0.00044147,0.00343857,-0.00067215,-0
 .00139870,-0.00026636,-0.00016878,0.00111832,0.00014380,-0.00004966,-0
 .00049927,0.00093590,-0.00011528,0.00040085,0.00281757,-0.01288830,0.0
 1839137,-0.00223043,0.01283693,-0.01617406,-0.01846181,0.14642183,-0.0
 0030132,-0.00100867,0.00136359,-0.02185295,0.12456626,-0.22167635,-0.0
 0050793,-0.00006028,0.00022140,-0.00026254,-0.00063798,0.00055928,-0.0
 0031883,-0.00019868,-0.00026298,0.00031115,0.00011285,-0.00002261,0.00
 049026,-0.00052153,-0.00093757,0.00079504,-0.00148777,0.00116431,-0.00
 210591,0.01617406,-0.02160403,0.02285572,-0.13622458,0.24168828,0.0022
 1024,0.00271683,-0.00018647,0.00115199,0.00096884,-0.00001080,0.001168
 86,0.00099863,-0.00054980,-0.18472273,-0.12262716,0.00793217,-0.000146
 81,-0.00014141,-0.00008014,0.00023238,0.00056755,0.00006235,0.00024600
 ,0.00031684,0.00018961,0.00050156,-0.00042598,0.00010022,-0.00002236,0
 .00003874,-0.00000012,0.00019144,-0.00002981,0.00011066,0.19806836,-0.
 01530586,-0.01543977,0.00225059,-0.00136316,0.00048331,-0.00092591,0.0
 0066138,-0.00177826,0.00361618,-0.12234931,-0.16317718,0.00692445,0.00
 002528,-0.00002579,-0.00107105,-0.01303979,-0.01251798,-0.00014366,0.0
 0024953,0.00019938,0.00015533,0.00111469,0.00005751,0.00022739,0.00003
 781,-0.00007782,0.00003697,0.00027942,0.00046560,-0.00005694,0.1367311
 0,0.17850944,0.02062239,0.01942076,-0.00281776,0.00114111,-0.00082237,
 0.00101140,-0.00084217,0.00320063,-0.00441809,0.00829437,0.00757777,-0
 .04882405,0.00079522,0.00100582,0.00163259,-0.02284631,-0.02133141,0.0
 0007381,-0.00011590,-0.00004661,-0.00014194,-0.00069537,-0.00025429,0.
 00014666,-0.00016850,0.00003698,-0.00000598,0.00006239,-0.00036679,-0.
 00002239,-0.00823327,-0.00799129,0.05722885,0.00221024,0.00271683,0.00
 018647,0.00115199,0.00096884,0.00001080,0.00116886,0.00099863,0.000549
 80,-0.00014681,-0.00014141,0.00008014,-0.18472273,-0.12262716,-0.00793
 217,0.00024600,0.00031684,-0.00018961,0.00023238,0.00056755,-0.0000623
 5,0.00050156,-0.00042598,-0.00010022,0.00019144,-0.00002981,-0.0001106
 6,-0.00002236,0.00003874,0.00000012,0.00035136,0.00019369,-0.00055591,
 0.19806836,-0.01530586,-0.01543977,-0.00225059,-0.00136316,0.00048331,
 0.00092591,0.00066138,-0.00177826,-0.00361618,0.00002528,-0.00002579,0
 .00107105,-0.12234931,-0.16317718,-0.00692445,0.00024953,0.00019938,-0
 .00015533,-0.01303979,-0.01251798,0.00014366,0.00111469,0.00005751,-0.
 00022739,0.00027942,0.00046560,0.00005694,0.00003781,-0.00007782,-0.00
 003697,0.00019369,0.00075547,-0.00046649,0.13673110,0.17850944,-0.0206
 2239,-0.01942076,-0.00281776,-0.00114111,0.00082237,0.00101140,0.00084
 217,-0.00320063,-0.00441809,-0.00079522,-0.00100582,0.00163259,-0.0082
 9437,-0.00757777,-0.04882405,0.00011590,0.00004661,-0.00014194,0.02284
 631,0.02133141,0.00007381,0.00069537,0.00025429,0.00014666,-0.00006239
 ,0.00036679,-0.00002239,0.00016850,-0.00003698,-0.00000598,0.00055591,
 0.00046649,-0.00048866,0.00823327,0.00799129,0.05722885,-0.00469452,0.
 00151538,0.00047582,0.00118389,0.00104299,-0.00163514,0.00068904,0.000
 30745,-0.00035988,-0.23774206,0.10627419,0.02044551,-0.00022504,0.0000
 3561,0.00115753,0.00174208,-0.00107877,-0.00011770,0.00052713,-0.00031
 618,-0.00024674,0.00051990,-0.00016182,0.00015493,0.00004015,-0.000077
 81,0.00006173,-0.00035067,0.00050978,0.00011498,-0.02149316,0.01197528
 ,0.00225282,-0.00002011,0.00009093,-0.00004100,0.25623622,0.01895089,-
 0.01083294,-0.00043336,-0.00122430,-0.00159775,0.00371767,-0.00029275,
 0.00019417,-0.00066017,0.10623769,-0.11257604,-0.01161242,0.00011128,0
 .00033897,-0.00170303,0.01566717,-0.00923265,-0.00310842,-0.00038017,-
 0.00000266,-0.00000538,0.00026938,0.00018655,0.00005801,-0.00027632,0.
 00014795,-0.00016984,0.00135161,-0.00041735,0.00002515,-0.01973898,0.0
 1233413,0.00233312,-0.00015273,0.00007229,0.00003286,-0.11914796,0.120
 61441,-0.02433461,0.01271595,0.00028945,0.00053676,0.00271941,-0.00496
 255,0.00053834,-0.00045735,0.00084579,0.02140109,-0.01173731,-0.049176
 08,-0.00206228,0.00141238,0.00064201,0.02655448,-0.01558871,-0.0057123
 6,0.00018664,-0.00003473,0.00019896,0.00015866,-0.00022978,-0.00005072
 ,0.00015338,0.00011681,0.00013721,-0.00157277,0.00105491,-0.00005262,0
 .00128000,-0.00069634,-0.00053979,0.00005675,-0.00012895,-0.00005620,-
 0.02250409,0.01370734,0.06191947,-0.00469452,0.00151538,-0.00047582,0.
 00118389,0.00104299,0.00163514,0.00068904,0.00030745,0.00035988,-0.000
 22504,0.00003561,-0.00115753,-0.23774206,0.10627419,-0.02044551,0.0005
 2713,-0.00031618,0.00024674,0.00174208,-0.00107877,0.00011770,0.000519
 90,-0.00016182,-0.00015493,-0.00035067,0.00050978,-0.00011498,0.000040
 15,-0.00007781,-0.00006173,-0.00002011,0.00009093,0.00004100,-0.021493
 16,0.01197528,-0.00225282,0.00081692,-0.00054046,0.00059874,0.25623622
 ,0.01895089,-0.01083294,0.00043336,-0.00122430,-0.00159775,-0.00371767
 ,-0.00029275,0.00019417,0.00066017,0.00011128,0.00033897,0.00170303,0.
 10623769,-0.11257604,0.01161242,-0.00038017,-0.00000266,0.00000538,0.0
 1566717,-0.00923265,0.00310842,0.00026938,0.00018655,-0.00005801,0.001
 35161,-0.00041735,-0.00002515,-0.00027632,0.00014795,0.00016984,-0.000
 15273,0.00007229,-0.00003286,-0.01973898,0.01233413,-0.00233312,-0.000
 54046,0.00083802,-0.00028388,-0.11914796,0.12061441,0.02433461,-0.0127
 1595,0.00028945,-0.00053676,-0.00271941,-0.00496255,-0.00053834,0.0004
 5735,0.00084579,0.00206228,-0.00141238,0.00064201,-0.02140109,0.011737
 31,-0.04917608,-0.00018664,0.00003473,0.00019896,-0.02655448,0.0155887
 1,-0.00571236,-0.00015866,0.00022978,-0.00005072,0.00157277,-0.0010549
 1,-0.00005262,-0.00015338,-0.00011681,0.00013721,-0.00005675,0.0001289
 5,-0.00005620,-0.00128000,0.00069634,-0.00053979,-0.00059874,0.0002838
 8,-0.00078200,0.02250409,-0.01370734,0.06191947,0.00012426,-0.00013731
 ,0.00037996,0.00006247,0.00041134,0.00009041,0.00019643,0.00034825,-0.
 00027486,-0.00121837,0.00024011,0.00017080,0.00032709,0.00018270,0.000
 05632,-0.05993857,0.03214049,-0.03976856,-0.00001186,-0.00005110,-0.00
 004394,0.00000801,-0.00005975,-0.00002499,0.00011189,-0.00046505,-0.00
 013518,0.00007379,-0.00014412,-0.00017141,-0.00012096,0.00024634,-0.00
 013271,-0.00003235,0.00004630,0.00005596,0.00032917,-0.00043860,0.0002
 7674,0.00000664,-0.00003385,-0.00002235,0.05956844,-0.00006781,-0.0024
 2185,-0.00245135,0.00024371,-0.00030379,-0.00022032,0.00026516,0.00015
 610,-0.00014998,-0.00398698,0.01251308,-0.01591816,-0.00000416,0.00081
 333,-0.00072733,0.03213241,-0.15041765,0.12491177,0.00006737,-0.000270
 86,-0.00020349,0.00000730,0.00005605,0.00006506,-0.00024883,0.00028597
 ,0.00018023,-0.00007629,0.00012359,0.00012941,-0.00000597,0.00073128,0
 .00083110,-0.00005173,0.00001867,0.00006588,-0.00009667,0.00090262,0.0
 0075790,0.00002745,0.00001668,0.00003867,-0.03590161,0.16147858,0.0001
 5564,-0.00568410,-0.00306019,0.00052861,-0.00040059,0.00009059,0.00012
 682,-0.00014852,0.00036611,-0.00537976,0.01905341,-0.02202805,-0.00049
 854,0.00167166,-0.00097994,-0.03951944,0.12428918,-0.19921565,0.000113
 13,-0.00063691,-0.00037765,-0.00008933,-0.00000164,-0.00001737,-0.0000
 5486,0.00012664,0.00013947,-0.00009390,0.00012136,0.00002011,-0.000482
 29,-0.00009438,0.00102015,-0.00008888,-0.00009024,-0.00005245,0.000702
 39,0.00024764,0.00103276,0.00010398,-0.00000211,0.00002668,0.04335090,
 -0.13440531,0.21795262,0.00012426,-0.00013731,-0.00037996,0.00006247,0
 .00041134,-0.00009041,0.00019642,0.00034825,0.00027486,0.00032709,0.00
 018270,-0.00005632,-0.00121837,0.00024011,-0.00017080,-0.00001186,-0.0
 0005110,0.00004394,-0.05993857,0.03214049,0.03976856,0.00000801,-0.000
 05975,0.00002499,0.00007379,-0.00014412,0.00017141,0.00011189,-0.00046
 505,0.00013518,-0.00003235,0.00004630,-0.00005596,-0.00012096,0.000246
 34,0.00013271,0.00000664,-0.00003385,0.00002235,0.00032917,-0.00043860
 ,-0.00027674,0.00001667,-0.00000322,0.00001825,0.05956844,-0.00006781,
 -0.00242185,0.00245135,0.00024371,-0.00030379,0.00022032,0.00026516,0.
 00015610,0.00014998,-0.00000416,0.00081333,0.00072733,-0.00398698,0.01
 251308,0.01591816,0.00006737,-0.00027086,0.00020349,0.03213241,-0.1504
 1765,-0.12491177,0.00000730,0.00005605,-0.00006506,-0.00007629,0.00012
 359,-0.00012941,-0.00024883,0.00028597,-0.00018023,-0.00005173,0.00001
 867,-0.00006588,-0.00000597,0.00073128,-0.00083110,0.00002745,0.000016
 68,-0.00003867,-0.00009667,0.00090262,-0.00075790,-0.00000322,0.000058
 04,0.00011656,-0.03590161,0.16147858,-0.00015564,0.00568410,-0.0030601
 9,-0.00052861,0.00040059,0.00009059,-0.00012682,0.00014852,0.00036611,
 0.00049854,-0.00167166,-0.00097994,0.00537976,-0.01905341,-0.02202805,
 -0.00011313,0.00063691,-0.00037765,0.03951944,-0.12428918,-0.19921565,
 0.00008933,0.00000164,-0.00001737,0.00009390,-0.00012136,0.00002011,0.
 00005486,-0.00012664,0.00013947,0.00008888,0.00009024,-0.00005245,0.00
 048229,0.00009438,0.00102015,-0.00010398,0.00000211,0.00002668,-0.0007
 0239,-0.00024764,0.00103276,-0.00001825,-0.00011656,-0.00027190,-0.043
 35090,0.13440531,0.21795262,0.00004285,-0.00039871,0.00039100,0.000000
 91,0.00019485,-0.00025888,0.00022578,0.00031361,-0.00054675,-0.0002288
 5,-0.00004088,-0.00066069,0.00021344,0.00028983,-0.00012767,-0.1833234
 4,-0.12840438,0.00580990,-0.00002813,-0.00004301,-0.00004252,0.0001260
 8,0.00008093,0.00017349,-0.00024408,-0.00014500,0.00007372,-0.00000202
 ,0.00001851,-0.00009953,0.00155032,0.00004999,0.00003080,-0.00002079,0
 .00006896,0.00014365,0.00071263,0.00007382,-0.00053579,-0.00004457,0.0
 0002296,0.00003017,0.00570018,0.00580786,0.00063851,0.00000471,0.00001
 218,-0.00001939,0.19532906,0.00032225,0.00047863,0.00121800,0.00001795
 ,0.00005590,-0.00015744,0.00014328,0.00075203,-0.00059443,-0.01280456,
 -0.01285131,0.00020267,0.00021894,0.00024139,0.00002065,-0.12838739,-0
 .17518765,0.00623390,0.00003382,-0.00001808,-0.00002039,0.00009230,-0.
 00005461,0.00002255,-0.00003298,-0.00000082,-0.00004929,-0.00005620,0.
 00003964,-0.00001091,0.00056711,-0.00089451,-0.00347203,0.00005991,0.0
 0009529,0.00021542,0.00032049,0.00005014,0.00044735,-0.00000674,-0.000
 06249,0.00000501,-0.01497325,-0.01427728,0.00016580,0.00000226,-0.0000
 0197,-0.00003469,0.14335373,0.18924549,-0.00121538,-0.00126306,0.00207
 991,0.00000115,0.00016792,-0.00008668,0.00066356,0.00079021,-0.0002596
 7,-0.02277911,-0.02110865,0.00039097,0.00017084,-0.00016879,-0.0000033
 2,0.00591859,0.00647935,-0.04909338,0.00005985,0.00011830,0.00005697,0
 .00021392,-0.00002047,0.00007134,-0.00014535,0.00006154,0.00001740,-0.
 00002622,0.00006529,0.00001129,-0.00007330,-0.00339977,-0.00525593,0.0
 0015932,0.00023650,0.00010729,0.00038538,0.00072263,0.00112918,-0.0000
 2972,-0.00002430,0.00002377,0.01957038,0.01675713,-0.00027100,0.000000
 95,-0.00000881,0.00003095,-0.00630820,-0.00391797,0.05226538,-0.000382
 80,0.00069620,-0.00016270,-0.00028061,0.00086775,-0.00017233,0.0000350
 2,0.00005123,0.00000734,0.00283613,-0.00147724,0.00044280,0.00005804,-
 0.00012878,0.00016479,-0.25140196,0.10226253,0.04295234,-0.00006176,0.
 00008515,-0.00000832,-0.00008487,-0.00012708,-0.00009688,0.00023040,-0
 .00047045,-0.00117445,0.00014217,-0.00029902,-0.00023169,0.00090466,0.
 00027510,0.00055603,0.00000210,0.00001229,0.00000637,0.00170057,-0.000
 38103,-0.00073995,0.00006579,-0.00007765,-0.00001575,-0.00522207,0.001
 90353,0.00048905,0.00001442,-0.00002370,0.00003969,-0.02003404,0.01112
 019,0.00341540,0.27142376,-0.00019688,-0.00014742,0.00065969,0.0002663
 1,0.00001396,0.00036857,-0.00002977,0.00010551,-0.00003228,0.01551990,
 -0.00862270,-0.00291666,0.00013414,0.00006759,-0.00005648,0.10210034,-
 0.10238420,-0.02150483,-0.00006163,-0.00002050,0.00001609,-0.00010384,
 -0.00011104,-0.00012636,0.00020606,0.00033516,0.00090229,-0.00021296,0
 .00008046,0.00009998,0.00001963,0.00021474,0.00066122,-0.00000510,-0.0
 0002583,0.00000197,-0.00053304,-0.00105698,-0.00366123,-0.00014009,0.0
 0008294,0.00007009,0.01859524,-0.00946570,-0.00439402,-0.00000515,0.00
 000512,-0.00003085,-0.02126751,0.01235443,0.00447410,-0.11425983,0.108
 52094,0.00105752,-0.00019031,0.00127476,-0.00016544,-0.00033830,-0.000
 85162,-0.00006211,0.00006577,-0.00013677,0.02704996,-0.01309538,-0.004
 20365,-0.00003484,-0.00007097,-0.00019892,0.04217936,-0.02130044,-0.05
 788576,-0.00012713,0.00009011,0.00001827,-0.00008362,0.00000969,-0.000
 03575,-0.00089937,0.00119134,-0.00111507,-0.00012349,0.00019735,0.0003
 7724,-0.00048424,0.00069485,0.00138431,0.00000331,-0.00002441,0.000018
 19,-0.00044749,-0.00323711,-0.00509213,-0.00027396,0.00022498,0.000179
 15,-0.02338248,0.01045292,0.00557971,-0.00002422,0.00000638,0.00001502
 ,0.00133450,-0.00024013,-0.00114323,-0.04549820,0.02551857,0.06194491,
 0.00004285,-0.00039871,-0.00039100,0.00000091,0.00019485,0.00025888,0.
 00022578,0.00031361,0.00054675,0.00021344,0.00028983,0.00012767,-0.000
 22885,-0.00004088,0.00066069,-0.00002813,-0.00004301,0.00004252,-0.183
 32344,-0.12840438,-0.00580990,0.00012608,0.00008093,-0.00017349,-0.000
 00202,0.00001851,0.00009953,-0.00024408,-0.00014500,-0.00007372,-0.000
 02079,0.00006896,-0.00014365,0.00155032,0.00004999,-0.00003080,-0.0000
 4457,0.00002296,-0.00003017,0.00071263,0.00007382,0.00053579,0.0000047
 1,0.00001218,0.00001939,0.00570018,0.00580786,-0.00063851,0.00002198,0
 .00000870,0.00001773,-0.00000204,0.00000355,0.00000857,0.19532906,0.00
 032225,0.00047863,-0.00121800,0.00001795,0.00005590,0.00015744,0.00014
 328,0.00075203,0.00059443,0.00021894,0.00024139,-0.00002065,-0.0128045
 6,-0.01285131,-0.00020267,0.00003382,-0.00001808,0.00002039,-0.1283873
 9,-0.17518765,-0.00623390,0.00009230,-0.00005461,-0.00002255,-0.000056
 20,0.00003964,0.00001091,-0.00003298,-0.00000082,0.00004929,0.00005991
 ,0.00009529,-0.00021542,0.00056711,-0.00089451,0.00347203,-0.00000674,
 -0.00006249,-0.00000501,0.00032049,0.00005014,-0.00044735,0.00000226,-
 0.00000197,0.00003469,-0.01497325,-0.01427728,-0.00016580,0.00000870,0
 .00002574,0.00003413,0.00000020,0.00001002,-0.00000006,0.14335373,0.18
 924549,0.00121538,0.00126306,0.00207991,-0.00000115,-0.00016792,-0.000
 08668,-0.00066356,-0.00079021,-0.00025967,-0.00017084,0.00016879,-0.00
 000332,0.02277911,0.02110865,0.00039097,-0.00005985,-0.00011830,0.0000
 5697,-0.00591859,-0.00647935,-0.04909338,-0.00021392,0.00002047,0.0000
 7134,0.00002622,-0.00006529,0.00001129,0.00014535,-0.00006154,0.000017
 40,-0.00015932,-0.00023650,0.00010729,0.00007330,0.00339977,-0.0052559
 3,0.00002972,0.00002430,0.00002377,-0.00038538,-0.00072263,0.00112918,
 -0.00000095,0.00000881,0.00003095,-0.01957038,-0.01675713,-0.00027100,
 -0.00001773,-0.00003413,-0.00006241,-0.00000020,-0.00000473,-0.0000088
 4,0.00630820,0.00391797,0.05226538,-0.00038280,0.00069620,0.00016270,-
 0.00028061,0.00086775,0.00017233,0.00003502,0.00005123,-0.00000734,0.0
 0005804,-0.00012878,-0.00016479,0.00283613,-0.00147724,-0.00044280,-0.
 00006176,0.00008515,0.00000832,-0.25140196,0.10226253,-0.04295234,-0.0
 0008487,-0.00012708,0.00009688,0.00014217,-0.00029902,0.00023169,0.000
 23040,-0.00047045,0.00117445,0.00000210,0.00001229,-0.00000637,0.00090
 466,0.00027510,-0.00055603,0.00006579,-0.00007765,0.00001575,0.0017005
 7,-0.00038103,0.00073995,0.00001442,-0.00002370,-0.00003969,-0.0052220
 7,0.00190353,-0.00048905,-0.00000204,0.00000020,0.00000020,0.00005710,
 -0.00002939,-0.00002666,-0.02003404,0.01112019,-0.00341540,0.27142376,
 -0.00019688,-0.00014742,-0.00065969,0.00026631,0.00001396,-0.00036857,
 -0.00002977,0.00010551,0.00003228,0.00013414,0.00006759,0.00005648,0.0
 1551990,-0.00862270,0.00291666,-0.00006163,-0.00002050,-0.00001609,0.1
 0210034,-0.10238420,0.02150483,-0.00010384,-0.00011104,0.00012636,-0.0
 0021296,0.00008046,-0.00009998,0.00020606,0.00033516,-0.00090229,-0.00
 000510,-0.00002583,-0.00000197,0.00001963,0.00021474,-0.00066122,-0.00
 014009,0.00008294,-0.00007009,-0.00053304,-0.00105698,0.00366123,-0.00
 000515,0.00000512,0.00003085,0.01859524,-0.00946570,0.00439402,0.00000
 355,0.00001002,0.00000473,-0.00002939,0.00004351,0.00004514,-0.0212675
 1,0.01235443,-0.00447410,-0.11425983,0.10852094,-0.00105752,0.00019031
 ,0.00127476,0.00016544,0.00033830,-0.00085162,0.00006211,-0.00006577,-
 0.00013677,0.00003484,0.00007097,-0.00019892,-0.02704996,0.01309538,-0
 .00420365,0.00012713,-0.00009011,0.00001827,-0.04217936,0.02130044,-0.
 05788576,0.00008362,-0.00000969,-0.00003575,0.00012349,-0.00019735,0.0
 0037724,0.00089937,-0.00119134,-0.00111507,-0.00000331,0.00002441,0.00
 001819,0.00048424,-0.00069485,0.00138431,0.00027396,-0.00022498,0.0001
 7915,0.00044749,0.00323711,-0.00509213,0.00002422,-0.00000638,0.000015
 02,0.02338248,-0.01045292,0.00557971,-0.00000857,0.00000006,-0.0000088
 4,0.00002666,-0.00004514,-0.00011983,-0.00133450,0.00024013,-0.0011432
 3,0.04549820,-0.02551857,0.06194491\\-0.00002894,0.00001344,0.,0.00001
 799,0.00000496,0.,-0.00001173,-0.00000563,0.,0.00001218,-0.00001080,0.
 00000670,0.00001218,-0.00001080,-0.00000670,-0.00000023,-0.00000648,-0
 .00001152,-0.00000023,-0.00000648,0.00001152,-0.00000874,-0.00001128,0
 .,0.00000352,0.00001003,0.00002914,0.00000352,0.00001003,-0.00002914,-
 0.00001847,0.00000497,0.00000401,-0.00001847,0.00000497,-0.00000401,0.
 00001484,-0.00000370,-0.00000031,0.00001484,-0.00000370,0.00000031,0.0
 0001087,-0.00001965,0.00002661,0.00001087,-0.00001965,-0.00002661,0.00
 001261,0.00001813,0.00000329,-0.00001961,0.00000676,-0.00000424,0.0000
 1261,0.00001813,-0.00000329,-0.00001961,0.00000676,0.00000424\\\@


 FESTINA LENTE!
     - IMPERATOR AUGUSTUS 
 Job cpu time:  0 days  0 hours  2 minutes 14.2 seconds.
 File lengths (MBytes):  RWF=     27 Int=      0 D2E=      0 Chk=      2 Scr=      1
 Normal termination of Gaussian 09 at Tue Jan 23 15:10:44 2018.
