 Entering Gaussian System, Link 0=g09
 Input=r-2-chlorobutane_tmp.inp
 Output=r-2-chlorobutane_tmp.log
 Initial command:
 /usr/local/g09/l1.exe /home/g09scr/Gau-28943.inp -scrdir=/home/g09scr/
 Entering Link 1 = /usr/local/g09/l1.exe PID=     28945.
  
 Copyright (c) 1988,1990,1992,1993,1995,1998,2003,2009,2010,
            Gaussian, Inc.  All Rights Reserved.
  
 This is part of the Gaussian(R) 09 program.  It is based on
 the Gaussian(R) 03 system (copyright 2003, Gaussian, Inc.),
 the Gaussian(R) 98 system (copyright 1998, Gaussian, Inc.),
 the Gaussian(R) 94 system (copyright 1995, Gaussian, Inc.),
 the Gaussian 92(TM) system (copyright 1992, Gaussian, Inc.),
 the Gaussian 90(TM) system (copyright 1990, Gaussian, Inc.),
 the Gaussian 88(TM) system (copyright 1988, Gaussian, Inc.),
 the Gaussian 86(TM) system (copyright 1986, Carnegie Mellon
 University), and the Gaussian 82(TM) system (copyright 1983,
 Carnegie Mellon University). Gaussian is a federally registered
 trademark of Gaussian, Inc.
  
 This software contains proprietary and confidential information,
 including trade secrets, belonging to Gaussian, Inc.
  
 This software is provided under written license and may be
 used, copied, transmitted, or stored only in accord with that
 written license.
  
 The following legend is applicable only to US Government
 contracts under FAR:
  
                    RESTRICTED RIGHTS LEGEND
  
 Use, reproduction and disclosure by the US Government is
 subject to restrictions as set forth in subparagraphs (a)
 and (c) of the Commercial Computer Software - Restricted
 Rights clause in FAR 52.227-19.
  
 Gaussian, Inc.
 340 Quinnipiac St., Bldg. 40, Wallingford CT 06492
  
  
 ---------------------------------------------------------------
 Warning -- This program may not be used in any manner that
 competes with the business of Gaussian, Inc. or will provide
 assistance to any competitor of Gaussian, Inc.  The licensee
 of this program is prohibited from giving any competitor of
 Gaussian, Inc. access to this program.  By using this program,
 the user acknowledges that Gaussian, Inc. is engaged in the
 business of creating and licensing software in the field of
 computational chemistry and represents and warrants to the
 licensee that it is not a competitor of Gaussian, Inc. and that
 it will not use this program in any manner prohibited above.
 ---------------------------------------------------------------
  

 Cite this work as:
 Gaussian 09, Revision B.01,
 M. J. Frisch, G. W. Trucks, H. B. Schlegel, G. E. Scuseria, 
 M. A. Robb, J. R. Cheeseman, G. Scalmani, V. Barone, B. Mennucci, 
 G. A. Petersson, H. Nakatsuji, M. Caricato, X. Li, H. P. Hratchian, 
 A. F. Izmaylov, J. Bloino, G. Zheng, J. L. Sonnenberg, M. Hada, 
 M. Ehara, K. Toyota, R. Fukuda, J. Hasegawa, M. Ishida, T. Nakajima, 
 Y. Honda, O. Kitao, H. Nakai, T. Vreven, J. A. Montgomery, Jr., 
 J. E. Peralta, F. Ogliaro, M. Bearpark, J. J. Heyd, E. Brothers, 
 K. N. Kudin, V. N. Staroverov, T. Keith, R. Kobayashi, J. Normand, 
 K. Raghavachari, A. Rendell, J. C. Burant, S. S. Iyengar, J. Tomasi, 
 M. Cossi, N. Rega, J. M. Millam, M. Klene, J. E. Knox, J. B. Cross, 
 V. Bakken, C. Adamo, J. Jaramillo, R. Gomperts, R. E. Stratmann, 
 O. Yazyev, A. J. Austin, R. Cammi, C. Pomelli, J. W. Ochterski, 
 R. L. Martin, K. Morokuma, V. G. Zakrzewski, G. A. Voth, 
 P. Salvador, J. J. Dannenberg, S. Dapprich, A. D. Daniels, 
 O. Farkas, J. B. Foresman, J. V. Ortiz, J. Cioslowski, 
 and D. J. Fox, Gaussian, Inc., Wallingford CT, 2010.
 
 ******************************************
 Gaussian 09:  EM64L-G09RevB.01 12-Aug-2010
                 4-Jan-2018 
 ******************************************
 %nproc=4
 Will use up to    4 processors via shared memory.
 %mem=60gb
 -----------------------
 #B3LYP/6-31G* fopt test
 -----------------------
 1/14=-1,18=20,19=15,26=3,38=1/1,3;
 2/9=110,12=2,14=103,17=6,18=5,40=1/2;
 3/5=1,6=6,7=1,11=2,16=1,25=1,30=1,71=1,74=-5/1,2,3;
 4//1;
 5/5=2,38=5/2;
 6/7=2,8=2,9=2,10=2,28=1/1;
 7//1,2,3,16;
 1/14=-1,18=20,19=15/3(2);
 2/9=110/2;
 99//99;
 2/9=110/2;
 3/5=1,6=6,7=1,11=2,16=1,25=1,30=1,71=1,74=-5/1,2,3;
 4/5=5,16=3/1;
 5/5=2,38=5/2;
 7//1,2,3,16;
 1/14=-1,18=20,19=15/3(-5);
 2/9=110/2;
 6/7=2,8=2,9=2,10=2,19=2,28=1/1;
 99/9=1/99;
 ----------------------------------------------
 AsymmetricEnantiomers/r-2-chlorobutane_tmp.xyz
 ----------------------------------------------
 Symbolic Z-matrix:
 Charge =  0 Multiplicity = 1
 C                     0.64525  -0.13013   0.07709 
 C                     1.25624  -1.48799   0.50943 
 H                     1.68777  -2.00309  -0.36412 
 H                     0.48057  -2.13367   0.95014 
 H                     2.05371  -1.33448   1.25286 
 Cl                   -0.58718  -0.42799  -1.15986 
 H                     1.43556   0.48892  -0.37802 
 C                     0.03076   0.61971   1.29095 
 H                    -0.78711   0.01667   1.71883 
 C                    -0.51248   2.01951   0.90173 
 H                     0.80505   0.7478    2.06697 
 H                    -1.3262    1.93577   0.1649 
 H                     0.29205   2.63672   0.47208 
 H                    -0.9069    2.53139   1.7946 
 

 GradGradGradGradGradGradGradGradGradGradGradGradGradGradGradGradGradGrad
 Berny optimization.
 Initialization pass.
                           ----------------------------
                           !    Initial Parameters    !
                           ! (Angstroms and Degrees)  !
 --------------------------                            --------------------------
 ! Name  Definition              Value          Derivative Info.                !
 --------------------------------------------------------------------------------
 ! R1    R(1,2)                  1.5505         estimate D2E/DX2                !
 ! R2    R(1,6)                  1.7713         estimate D2E/DX2                !
 ! R3    R(1,7)                  1.1022         estimate D2E/DX2                !
 ! R4    R(1,8)                  1.5535         estimate D2E/DX2                !
 ! R5    R(2,3)                  1.1021         estimate D2E/DX2                !
 ! R6    R(2,4)                  1.1013         estimate D2E/DX2                !
 ! R7    R(2,5)                  1.101          estimate D2E/DX2                !
 ! R8    R(8,9)                  1.1026         estimate D2E/DX2                !
 ! R9    R(8,10)                 1.5511         estimate D2E/DX2                !
 ! R10   R(8,11)                 1.1037         estimate D2E/DX2                !
 ! R11   R(10,12)                1.1009         estimate D2E/DX2                !
 ! R12   R(10,13)                1.1013         estimate D2E/DX2                !
 ! R13   R(10,14)                1.1022         estimate D2E/DX2                !
 ! A1    A(2,1,6)              108.7616         estimate D2E/DX2                !
 ! A2    A(2,1,7)              108.9316         estimate D2E/DX2                !
 ! A3    A(2,1,8)              111.1436         estimate D2E/DX2                !
 ! A4    A(6,1,7)              107.7567         estimate D2E/DX2                !
 ! A5    A(6,1,8)              110.5853         estimate D2E/DX2                !
 ! A6    A(7,1,8)              109.5817         estimate D2E/DX2                !
 ! A7    A(1,2,3)              110.0349         estimate D2E/DX2                !
 ! A8    A(1,2,4)              110.334          estimate D2E/DX2                !
 ! A9    A(1,2,5)              110.5854         estimate D2E/DX2                !
 ! A10   A(3,2,4)              108.5998         estimate D2E/DX2                !
 ! A11   A(3,2,5)              108.4672         estimate D2E/DX2                !
 ! A12   A(4,2,5)              108.7654         estimate D2E/DX2                !
 ! A13   A(1,8,9)              109.4303         estimate D2E/DX2                !
 ! A14   A(1,8,10)             112.213          estimate D2E/DX2                !
 ! A15   A(1,8,11)             109.1423         estimate D2E/DX2                !
 ! A16   A(9,8,10)             109.3396         estimate D2E/DX2                !
 ! A17   A(9,8,11)             108.1204         estimate D2E/DX2                !
 ! A18   A(10,8,11)            108.5048         estimate D2E/DX2                !
 ! A19   A(8,10,12)            110.9863         estimate D2E/DX2                !
 ! A20   A(8,10,13)            110.3537         estimate D2E/DX2                !
 ! A21   A(8,10,14)            109.9481         estimate D2E/DX2                !
 ! A22   A(12,10,13)           108.7516         estimate D2E/DX2                !
 ! A23   A(12,10,14)           108.2406         estimate D2E/DX2                !
 ! A24   A(13,10,14)           108.4931         estimate D2E/DX2                !
 ! D1    D(6,1,2,3)             58.1172         estimate D2E/DX2                !
 ! D2    D(6,1,2,4)            -61.6979         estimate D2E/DX2                !
 ! D3    D(6,1,2,5)            177.9271         estimate D2E/DX2                !
 ! D4    D(7,1,2,3)            -59.0775         estimate D2E/DX2                !
 ! D5    D(7,1,2,4)           -178.8926         estimate D2E/DX2                !
 ! D6    D(7,1,2,5)             60.7323         estimate D2E/DX2                !
 ! D7    D(8,1,2,3)           -179.9108         estimate D2E/DX2                !
 ! D8    D(8,1,2,4)             60.2741         estimate D2E/DX2                !
 ! D9    D(8,1,2,5)            -60.101          estimate D2E/DX2                !
 ! D10   D(2,1,8,9)            -61.8559         estimate D2E/DX2                !
 ! D11   D(2,1,8,10)           176.5858         estimate D2E/DX2                !
 ! D12   D(2,1,8,11)            56.2786         estimate D2E/DX2                !
 ! D13   D(6,1,8,9)             59.0494         estimate D2E/DX2                !
 ! D14   D(6,1,8,10)           -62.5089         estimate D2E/DX2                !
 ! D15   D(6,1,8,11)           177.1839         estimate D2E/DX2                !
 ! D16   D(7,1,8,9)            177.6942         estimate D2E/DX2                !
 ! D17   D(7,1,8,10)            56.1359         estimate D2E/DX2                !
 ! D18   D(7,1,8,11)           -64.1713         estimate D2E/DX2                !
 ! D19   D(1,8,10,12)           62.2318         estimate D2E/DX2                !
 ! D20   D(1,8,10,13)          -58.4012         estimate D2E/DX2                !
 ! D21   D(1,8,10,14)         -178.0414         estimate D2E/DX2                !
 ! D22   D(9,8,10,12)          -59.3784         estimate D2E/DX2                !
 ! D23   D(9,8,10,13)          179.9886         estimate D2E/DX2                !
 ! D24   D(9,8,10,14)           60.3484         estimate D2E/DX2                !
 ! D25   D(11,8,10,12)        -177.0919         estimate D2E/DX2                !
 ! D26   D(11,8,10,13)          62.2751         estimate D2E/DX2                !
 ! D27   D(11,8,10,14)         -57.3651         estimate D2E/DX2                !
 --------------------------------------------------------------------------------
 Trust Radius=3.00D-01 FncErr=1.00D-07 GrdErr=1.00D-06
 Number of steps in this run=     74 maximum allowed number of steps=    100.
 GradGradGradGradGradGradGradGradGradGradGradGradGradGradGradGradGradGrad

                          Input orientation:                          
 ---------------------------------------------------------------------
 Center     Atomic      Atomic             Coordinates (Angstroms)
 Number     Number       Type             X           Y           Z
 ---------------------------------------------------------------------
      1          6           0        0.645246   -0.130131    0.077087
      2          6           0        1.256240   -1.487990    0.509428
      3          1           0        1.687770   -2.003090   -0.364123
      4          1           0        0.480565   -2.133670    0.950141
      5          1           0        2.053710   -1.334480    1.252860
      6         17           0       -0.587175   -0.427988   -1.159860
      7          1           0        1.435560    0.488923   -0.378019
      8          6           0        0.030755    0.619706    1.290950
      9          1           0       -0.787112    0.016674    1.718830
     10          6           0       -0.512481    2.019510    0.901733
     11          1           0        0.805048    0.747800    2.066970
     12          1           0       -1.326200    1.935770    0.164902
     13          1           0        0.292048    2.636720    0.472075
     14          1           0       -0.906896    2.531390    1.794600
 ---------------------------------------------------------------------
                    Distance matrix (angstroms):
                    1          2          3          4          5
     1  C    0.000000
     2  C    1.550488   0.000000
     3  H    2.188492   1.102106   0.000000
     4  H    2.191692   1.101273   1.789325   0.000000
     5  H    2.194691   1.101006   1.787620   1.790287   0.000000
     6  Cl   1.771332   2.703388   2.879152   2.915737   3.690152
     7  H    1.102246   2.174374   2.504782   3.090958   2.523227
     8  C    1.553486   2.560268   3.516251   2.810615   2.812941
     9  H    2.183694   2.811042   3.813552   2.611871   3.180097
    10  C    2.577078   3.947763   4.756554   4.270525   4.237673
    11  H    2.180810   2.761932   3.775819   3.107325   2.560824
    12  H    2.856967   4.302305   4.987835   4.521210   4.827212
    13  H    2.817131   4.236071   4.916818   4.797990   4.414013
    14  H    3.527420   4.741966   5.652777   4.939731   4.899349
                    6          7          8          9         10
     6  Cl   0.000000
     7  H    2.354455   0.000000
     8  C    2.736050   2.185415   0.000000
     9  H    2.919684   3.091936   1.102559   0.000000
    10  C    3.200936   2.788427   1.551144   2.180463   0.000000
    11  H    3.705832   2.538215   1.103696   1.786259   2.170462
    12  H    2.808648   3.164719   2.200304   2.527496   1.100941
    13  H    3.581715   2.577462   2.192527   3.095743   1.101282
    14  H    4.193921   3.791971   2.188010   2.518707   1.102178
                   11         12         13         14
    11  H    0.000000
    12  H    3.093760   0.000000
    13  H    2.524852   1.790087   0.000000
    14  H    2.487193   1.785076   1.788193   0.000000
 Stoichiometry    C4H9Cl
 Framework group  C1[X(C4H9Cl)]
 Deg. of freedom    36
 Full point group                 C1      NOp   1
 Largest Abelian subgroup         C1      NOp   1
 Largest concise Abelian subgroup C1      NOp   1
                         Standard orientation:                         
 ---------------------------------------------------------------------
 Center     Atomic      Atomic             Coordinates (Angstroms)
 Number     Number       Type             X           Y           Z
 ---------------------------------------------------------------------
      1          6           0       -0.295142    0.399468    0.374875
      2          6           0       -1.416030    1.397526   -0.014360
      3          1           0       -2.357071    1.123856    0.489808
      4          1           0       -1.582775    1.380279   -1.102800
      5          1           0       -1.144304    2.421279    0.286153
      6         17           0       -0.806767   -1.235615   -0.074969
      7          1           0       -0.161320    0.420814    1.468759
      8          6           0        1.045391    0.763140   -0.320850
      9          1           0        0.919805    0.700694   -1.414451
     10          6           0        2.205168   -0.169151    0.117094
     11          1           0        1.315617    1.802243   -0.065140
     12          1           0        2.000308   -1.213107   -0.166206
     13          1           0        2.345389   -0.119435    1.208281
     14          1           0        3.143073    0.142936   -0.370483
 ---------------------------------------------------------------------
 Rotational constants (GHZ):      4.6116076      3.1128963      2.0164998
 Standard basis: 6-31G(d) (6D, 7F)
 There are    97 symmetry adapted basis functions of A   symmetry.
 Integral buffers will be    131072 words long.
 Raffenetti 2 integral format.
 Two-electron integral symmetry is turned on.
    97 basis functions,   200 primitive gaussians,    97 cartesian basis functions
    25 alpha electrons       25 beta electrons
       nuclear repulsion energy       233.4964519481 Hartrees.
 NAtoms=   14 NActive=   14 NUniq=   14 SFac= 1.00D+00 NAtFMM=   50 NAOKFM=F Big=F
 One-electron integrals computed using PRISM.
 NBasis=    97 RedAO= T  NBF=    97
 NBsUse=    97 1.00D-06 NBFU=    97
 Harris functional with IExCor=  402 diagonalized for initial guess.
 ExpMin= 1.43D-01 ExpMax= 2.52D+04 ExpMxC= 3.78D+03 IAcc=1 IRadAn=         1 AccDes= 0.00D+00
 HarFok:  IExCor=  402 AccDes= 0.00D+00 IRadAn=         1 IDoV= 1
 ScaDFX=  1.000000  1.000000  1.000000  1.000000
 FoFCou: FMM=F IPFlag=           0 FMFlag=      100000 FMFlg1=           0
         NFxFlg=           0 DoJE=T BraDBF=F KetDBF=T FulRan=T
         Omega=  0.000000  0.000000  1.000000  0.000000  0.000000 ICntrl=     500 IOpCl=  0
         NMat0=    1 NMatS0=    1 NMatT0=    0 NMatD0=    1 NMtDS0=    0 NMtDT0=    0
         I1Cent=           4 NGrid=           0.
 Petite list used in FoFCou.
 Initial guess orbital symmetries:
       Occupied  (A) (A) (A) (A) (A) (A) (A) (A) (A) (A) (A) (A)
                 (A) (A) (A) (A) (A) (A) (A) (A) (A) (A) (A) (A)
                 (A)
       Virtual   (A) (A) (A) (A) (A) (A) (A) (A) (A) (A) (A) (A)
                 (A) (A) (A) (A) (A) (A) (A) (A) (A) (A) (A) (A)
                 (A) (A) (A) (A) (A) (A) (A) (A) (A) (A) (A) (A)
                 (A) (A) (A) (A) (A) (A) (A) (A) (A) (A) (A) (A)
                 (A) (A) (A) (A) (A) (A) (A) (A) (A) (A) (A) (A)
                 (A) (A) (A) (A) (A) (A) (A) (A) (A) (A) (A) (A)
 The electronic state of the initial guess is 1-A.
 Requested convergence on RMS density matrix=1.00D-08 within 128 cycles.
 Requested convergence on MAX density matrix=1.00D-06.
 Requested convergence on             energy=1.00D-06.
 No special actions if energy rises.
 Keep R1 ints in memory in canonical form, NReq=12379521.
 Integral accuracy reduced to 1.0D-05 until final iterations.
 Initial convergence to 1.0D-05 achieved.  Increase integral accuracy.
 SCF Done:  E(RB3LYP) =  -618.053928165     A.U. after   12 cycles
             Convg  =    0.7294D-08             -V/T =  2.0051

 **********************************************************************

            Population analysis using the SCF density.

 **********************************************************************

 Orbital symmetries:
       Occupied  (A) (A) (A) (A) (A) (A) (A) (A) (A) (A) (A) (A)
                 (A) (A) (A) (A) (A) (A) (A) (A) (A) (A) (A) (A)
                 (A)
       Virtual   (A) (A) (A) (A) (A) (A) (A) (A) (A) (A) (A) (A)
                 (A) (A) (A) (A) (A) (A) (A) (A) (A) (A) (A) (A)
                 (A) (A) (A) (A) (A) (A) (A) (A) (A) (A) (A) (A)
                 (A) (A) (A) (A) (A) (A) (A) (A) (A) (A) (A) (A)
                 (A) (A) (A) (A) (A) (A) (A) (A) (A) (A) (A) (A)
                 (A) (A) (A) (A) (A) (A) (A) (A) (A) (A) (A) (A)
 The electronic state is 1-A.
 Alpha  occ. eigenvalues -- -101.52747 -10.24910 -10.19705 -10.18995 -10.17907
 Alpha  occ. eigenvalues --   -9.44481  -7.20843  -7.19902  -7.19893  -0.86649
 Alpha  occ. eigenvalues --   -0.76430  -0.72433  -0.63455  -0.57723  -0.47831
 Alpha  occ. eigenvalues --   -0.44515  -0.43253  -0.42119  -0.38615  -0.37250
 Alpha  occ. eigenvalues --   -0.35414  -0.34645  -0.34217  -0.28978  -0.28765
 Alpha virt. eigenvalues --    0.04535   0.08848   0.11792   0.12316   0.15381
 Alpha virt. eigenvalues --    0.15956   0.17036   0.17542   0.17646   0.19144
 Alpha virt. eigenvalues --    0.21395   0.22250   0.23656   0.39939   0.44091
 Alpha virt. eigenvalues --    0.46285   0.48343   0.49362   0.51198   0.55009
 Alpha virt. eigenvalues --    0.56675   0.58655   0.61307   0.62434   0.64517
 Alpha virt. eigenvalues --    0.70517   0.73499   0.77426   0.82747   0.85309
 Alpha virt. eigenvalues --    0.87450   0.89039   0.89120   0.89826   0.91033
 Alpha virt. eigenvalues --    0.91820   0.92680   0.96386   0.96950   0.97786
 Alpha virt. eigenvalues --    0.99465   1.04368   1.10410   1.16555   1.37063
 Alpha virt. eigenvalues --    1.43810   1.44494   1.50369   1.62722   1.67604
 Alpha virt. eigenvalues --    1.83731   1.85069   1.86975   1.93434   1.96559
 Alpha virt. eigenvalues --    1.98478   2.04489   2.14729   2.21227   2.23614
 Alpha virt. eigenvalues --    2.27364   2.33248   2.36881   2.37417   2.51334
 Alpha virt. eigenvalues --    2.62707   2.71898   4.08117   4.21667   4.28222
 Alpha virt. eigenvalues --    4.36922   4.49669
          Condensed to atoms (all electrons):
              1          2          3          4          5          6
     1  C    5.090956   0.355020  -0.030771  -0.035321  -0.026470   0.237453
     2  C    0.355020   5.133021   0.372175   0.376544   0.358948  -0.069692
     3  H   -0.030771   0.372175   0.551624  -0.027769  -0.028394   0.000182
     4  H   -0.035321   0.376544  -0.027769   0.548012  -0.028010   0.000295
     5  H   -0.026470   0.358948  -0.028394  -0.028010   0.569842   0.005399
     6  Cl   0.237453  -0.069692   0.000182   0.000295   0.005399  17.013089
     7  H    0.371067  -0.043544  -0.003140   0.004886  -0.001461  -0.051496
     8  C    0.360202  -0.045807   0.004431  -0.005244  -0.002602  -0.065017
     9  H   -0.039774  -0.003863  -0.000059   0.004436  -0.000028  -0.000063
    10  C   -0.046090   0.004245  -0.000146   0.000014  -0.000038  -0.007994
    11  H   -0.031706  -0.003134  -0.000026  -0.000093   0.002888   0.005198
    12  H   -0.006353   0.000098   0.000003   0.000004  -0.000005   0.009210
    13  H   -0.004941   0.000046   0.000000   0.000007   0.000001  -0.000027
    14  H    0.004416  -0.000121   0.000002   0.000002  -0.000006   0.000024
              7          8          9         10         11         12
     1  C    0.371067   0.360202  -0.039774  -0.046090  -0.031706  -0.006353
     2  C   -0.043544  -0.045807  -0.003863   0.004245  -0.003134   0.000098
     3  H   -0.003140   0.004431  -0.000059  -0.000146  -0.000026   0.000003
     4  H    0.004886  -0.005244   0.004436   0.000014  -0.000093   0.000004
     5  H   -0.001461  -0.002602  -0.000028  -0.000038   0.002888  -0.000005
     6  Cl  -0.051496  -0.065017  -0.000063  -0.007994   0.005198   0.009210
     7  H    0.587731  -0.044732   0.005376  -0.003910  -0.001811  -0.000062
     8  C   -0.044732   5.031388   0.374685   0.369717   0.364679  -0.031605
     9  H    0.005376   0.374685   0.578265  -0.036364  -0.032910  -0.003707
    10  C   -0.003910   0.369717  -0.036364   5.078001  -0.037852   0.379798
    11  H   -0.001811   0.364679  -0.032910  -0.037852   0.593843   0.004499
    12  H   -0.000062  -0.031605  -0.003707   0.379798   0.004499   0.535968
    13  H    0.005173  -0.036499   0.004788   0.376505  -0.003441  -0.029147
    14  H   -0.000045  -0.028726  -0.002503   0.370946  -0.002819  -0.028393
             13         14
     1  C   -0.004941   0.004416
     2  C    0.000046  -0.000121
     3  H    0.000000   0.000002
     4  H    0.000007   0.000002
     5  H    0.000001  -0.000006
     6  Cl  -0.000027   0.000024
     7  H    0.005173  -0.000045
     8  C   -0.036499  -0.028726
     9  H    0.004788  -0.002503
    10  C    0.376505   0.370946
    11  H   -0.003441  -0.002819
    12  H   -0.029147  -0.028393
    13  H    0.575705  -0.029974
    14  H   -0.029974   0.573243
 Mulliken atomic charges:
              1
     1  C   -0.197687
     2  C   -0.433937
     3  H    0.161888
     4  H    0.162238
     5  H    0.149935
     6  Cl  -0.076560
     7  H    0.175967
     8  C   -0.244870
     9  H    0.151724
    10  C   -0.446833
    11  H    0.142684
    12  H    0.169691
    13  H    0.141804
    14  H    0.143955
 Sum of Mulliken atomic charges =   0.00000
 Mulliken charges with hydrogens summed into heavy atoms:
              1
     1  C   -0.021720
     2  C    0.040124
     6  Cl  -0.076560
     8  C    0.049539
    10  C    0.008617
 Sum of Mulliken charges with hydrogens summed into heavy atoms =   0.00000
 Electronic spatial extent (au):  <R**2>=            647.0188
 Charge=              0.0000 electrons
 Dipole moment (field-independent basis, Debye):
    X=              0.6454    Y=              1.8518    Z=              0.3569  Tot=              1.9932
 Quadrupole moment (field-independent basis, Debye-Ang):
   XX=            -39.8173   YY=            -40.1835   ZZ=            -38.9397
   XY=             -0.9682   XZ=             -0.3376   YZ=              0.3881
 Traceless Quadrupole moment (field-independent basis, Debye-Ang):
   XX=             -0.1705   YY=             -0.5367   ZZ=              0.7071
   XY=             -0.9682   XZ=             -0.3376   YZ=              0.3881
 Octapole moment (field-independent basis, Debye-Ang**2):
  XXX=             -3.2199  YYY=             -3.9068  ZZZ=              0.4822  XYY=             -0.7119
  XXY=              0.2201  XXZ=             -0.4652  XZZ=             -0.9538  YZZ=             -0.5758
  YYZ=             -0.5275  XYZ=             -0.1886
 Hexadecapole moment (field-independent basis, Debye-Ang**3):
 XXXX=           -481.9302 YYYY=           -296.1156 ZZZZ=            -78.3844 XXXY=              5.4077
 XXXZ=             -5.0695 YYYX=              7.2351 YYYZ=              5.2596 ZZZX=              1.4110
 ZZZY=             -0.3326 XXYY=           -132.3024 XXZZ=            -93.2731 YYZZ=            -66.2550
 XXYZ=              0.6454 YYXZ=              0.8105 ZZXY=              0.7296
 N-N= 2.334964519481D+02 E-N=-1.925069189646D+03  KE= 6.149365378152D+02
 Calling FoFJK, ICntrl=      2127 FMM=F ISym2X=0 I1Cent= 0 IOpClX= 0 NMat=1 NMatS=1 NMatT=0.
 ***** Axes restored to original set *****
 -------------------------------------------------------------------
 Center     Atomic                   Forces (Hartrees/Bohr)
 Number     Number              X              Y              Z
 -------------------------------------------------------------------
      1        6           0.019387402   -0.005332665    0.032588996
      2        6          -0.001586414    0.003585594   -0.006149198
      3        1          -0.001789021    0.001116381    0.004852998
      4        1           0.003313511    0.002382960   -0.001683653
      5        1          -0.002630795    0.000720538   -0.002051371
      6       17          -0.013064897   -0.002179389   -0.016309639
      7        1          -0.005626595   -0.001628974   -0.000066169
      8        6          -0.003750818    0.010132123   -0.011549468
      9        1           0.004528926    0.000341710   -0.001070728
     10        6           0.000236013   -0.005201288    0.005103614
     11        1          -0.001357398   -0.003753316   -0.003726461
     12        1           0.004016875    0.001163332    0.003076772
     13        1          -0.003378386   -0.000652615    0.001152538
     14        1           0.001701597   -0.000694390   -0.004168232
 -------------------------------------------------------------------
 Cartesian Forces:  Max     0.032588996 RMS     0.007669014

 GradGradGradGradGradGradGradGradGradGradGradGradGradGradGradGradGradGrad
 Berny optimization.
 Internal  Forces:  Max     0.020844036 RMS     0.003953802
 Search for a local minimum.
 Step number   1 out of a maximum of   74
 All quantities printed in internal units (Hartrees-Bohrs-Radians)
 Mixed Optimization -- RFO/linear search
 Second derivative matrix not updated -- first step.
 ITU=  0
     Eigenvalues ---    0.00230   0.00230   0.00230   0.03524   0.04362
     Eigenvalues ---    0.04792   0.05029   0.05480   0.05527   0.05589
     Eigenvalues ---    0.05594   0.08139   0.08996   0.12076   0.16000
     Eigenvalues ---    0.16000   0.16000   0.16000   0.16000   0.16000
     Eigenvalues ---    0.16516   0.21960   0.23267   0.27357   0.27554
     Eigenvalues ---    0.27610   0.28512   0.33277   0.33401   0.33435
     Eigenvalues ---    0.33442   0.33450   0.33541   0.33542   0.33571
     Eigenvalues ---    0.33578
 RFO step:  Lambda=-4.38234148D-03 EMin= 2.30000000D-03
 Linear search not attempted -- first point.
 Iteration  1 RMS(Cart)=  0.03834667 RMS(Int)=  0.00074505
 Iteration  2 RMS(Cart)=  0.00106358 RMS(Int)=  0.00026536
 Iteration  3 RMS(Cart)=  0.00000050 RMS(Int)=  0.00026536
 Variable       Old X    -DE/DX   Delta X   Delta X   Delta X     New X
                                 (Linear)    (Quad)   (Total)
    R1        2.93000  -0.00929   0.00000  -0.03314  -0.03314   2.89686
    R2        3.34733   0.02084   0.00000   0.07200   0.07200   3.41933
    R3        2.08294  -0.00492   0.00000  -0.01453  -0.01453   2.06841
    R4        2.93566  -0.00889   0.00000  -0.03200  -0.03200   2.90367
    R5        2.08268  -0.00507   0.00000  -0.01497  -0.01497   2.06771
    R6        2.08110  -0.00440   0.00000  -0.01296  -0.01296   2.06815
    R7        2.08060  -0.00319   0.00000  -0.00937  -0.00937   2.07123
    R8        2.08353  -0.00396   0.00000  -0.01171  -0.01171   2.07183
    R9        2.93124  -0.00705   0.00000  -0.02519  -0.02519   2.90604
   R10        2.08568  -0.00401   0.00000  -0.01189  -0.01189   2.07379
   R11        2.08048  -0.00511   0.00000  -0.01503  -0.01503   2.06544
   R12        2.08112  -0.00328   0.00000  -0.00966  -0.00966   2.07146
   R13        2.08281  -0.00431   0.00000  -0.01272  -0.01272   2.07009
    A1        1.89825   0.00009   0.00000   0.01172   0.01133   1.90957
    A2        1.90121   0.00021   0.00000   0.00288   0.00301   1.90422
    A3        1.93982   0.00207   0.00000   0.01989   0.01962   1.95944
    A4        1.88071  -0.00160   0.00000  -0.03455  -0.03449   1.84621
    A5        1.93008   0.00051   0.00000   0.01174   0.01130   1.94137
    A6        1.91256  -0.00139   0.00000  -0.01332  -0.01333   1.89923
    A7        1.92047   0.00257   0.00000   0.01809   0.01809   1.93857
    A8        1.92569   0.00032   0.00000   0.00136   0.00129   1.92699
    A9        1.93008  -0.00227   0.00000  -0.01568  -0.01566   1.91442
   A10        1.89542  -0.00105   0.00000  -0.00273  -0.00281   1.89262
   A11        1.89311  -0.00004   0.00000   0.00088   0.00096   1.89407
   A12        1.89831   0.00045   0.00000  -0.00195  -0.00200   1.89631
   A13        1.90992  -0.00321   0.00000  -0.01409  -0.01520   1.89472
   A14        1.95849   0.00847   0.00000   0.04357   0.04344   2.00193
   A15        1.90489  -0.00495   0.00000  -0.04128  -0.04165   1.86324
   A16        1.90834  -0.00089   0.00000   0.01725   0.01715   1.92548
   A17        1.88706   0.00084   0.00000  -0.01508  -0.01584   1.87121
   A18        1.89377  -0.00048   0.00000   0.00762   0.00829   1.90206
   A19        1.93708   0.00046   0.00000   0.00298   0.00296   1.94003
   A20        1.92604   0.00166   0.00000   0.00906   0.00903   1.93507
   A21        1.91896   0.00158   0.00000   0.01046   0.01042   1.92938
   A22        1.89807  -0.00131   0.00000  -0.00957  -0.00957   1.88850
   A23        1.88915  -0.00082   0.00000  -0.00303  -0.00307   1.88609
   A24        1.89356  -0.00169   0.00000  -0.01065  -0.01070   1.88287
    D1        1.01434  -0.00115   0.00000  -0.02303  -0.02309   0.99125
    D2       -1.07683  -0.00169   0.00000  -0.03202  -0.03211  -1.10894
    D3        3.10541  -0.00099   0.00000  -0.02029  -0.02041   3.08500
    D4       -1.03110   0.00060   0.00000   0.01009   0.01017  -1.02092
    D5       -3.12226   0.00006   0.00000   0.00111   0.00115  -3.12112
    D6        1.05998   0.00076   0.00000   0.01284   0.01285   1.07283
    D7       -3.14004   0.00088   0.00000   0.01223   0.01233  -3.12771
    D8        1.05198   0.00034   0.00000   0.00325   0.00330   1.05528
    D9       -1.04896   0.00104   0.00000   0.01498   0.01500  -1.03396
   D10       -1.07959   0.00135   0.00000  -0.01793  -0.01840  -1.09799
   D11        3.08200  -0.00091   0.00000  -0.05897  -0.05920   3.02280
   D12        0.98225  -0.00239   0.00000  -0.06856  -0.06817   0.91407
   D13        1.03061   0.00320   0.00000   0.01813   0.01783   1.04844
   D14       -1.09099   0.00094   0.00000  -0.02291  -0.02297  -1.11396
   D15        3.09244  -0.00054   0.00000  -0.03250  -0.03194   3.06050
   D16        3.10135   0.00068   0.00000  -0.02550  -0.02582   3.07553
   D17        0.97976  -0.00159   0.00000  -0.06654  -0.06662   0.91314
   D18       -1.12000  -0.00307   0.00000  -0.07612  -0.07559  -1.19559
   D19        1.08615   0.00053   0.00000   0.01176   0.01188   1.09803
   D20       -1.01929   0.00077   0.00000   0.01580   0.01594  -1.00336
   D21       -3.10741   0.00082   0.00000   0.01667   0.01679  -3.09062
   D22       -1.03635  -0.00040   0.00000  -0.01128  -0.01157  -1.04792
   D23        3.14139  -0.00016   0.00000  -0.00724  -0.00751   3.13388
   D24        1.05328  -0.00011   0.00000  -0.00637  -0.00666   1.04662
   D25       -3.09084  -0.00064   0.00000  -0.00724  -0.00709  -3.09792
   D26        1.08691  -0.00040   0.00000  -0.00320  -0.00303   1.08388
   D27       -1.00121  -0.00035   0.00000  -0.00233  -0.00218  -1.00338
         Item               Value     Threshold  Converged?
 Maximum Force            0.020844     0.000450     NO 
 RMS     Force            0.003954     0.000300     NO 
 Maximum Displacement     0.102428     0.001800     NO 
 RMS     Displacement     0.038226     0.001200     NO 
 Predicted change in Energy=-2.279386D-03
 GradGradGradGradGradGradGradGradGradGradGradGradGradGradGradGradGradGrad

                          Input orientation:                          
 ---------------------------------------------------------------------
 Center     Atomic      Atomic             Coordinates (Angstroms)
 Number     Number       Type             X           Y           Z
 ---------------------------------------------------------------------
      1          6           0        0.626213   -0.150816    0.081940
      2          6           0        1.263138   -1.474864    0.519168
      3          1           0        1.707754   -1.997831   -0.332927
      4          1           0        0.511567   -2.128489    0.972669
      5          1           0        2.049691   -1.280278    1.257266
      6         17           0       -0.604154   -0.471580   -1.205443
      7          1           0        1.390668    0.476915   -0.386694
      8          6           0        0.009871    0.616478    1.261932
      9          1           0       -0.800977    0.012332    1.685660
     10          6           0       -0.498732    2.026050    0.916537
     11          1           0        0.790217    0.696701    2.029341
     12          1           0       -1.310056    1.984489    0.185345
     13          1           0        0.307265    2.640656    0.499143
     14          1           0       -0.875390    2.529381    1.813636
 ---------------------------------------------------------------------
                    Distance matrix (angstroms):
                    1          2          3          4          5
     1  C    0.000000
     2  C    1.532953   0.000000
     3  H    2.180208   1.094186   0.000000
     4  H    2.172034   1.094417   1.775532   0.000000
     5  H    2.164109   1.096046   1.777784   1.779405   0.000000
     6  Cl   1.809433   2.732699   2.904418   2.955394   3.709693
     7  H    1.094557   2.155526   2.495556   3.067379   2.494923
     8  C    1.536554   2.548742   3.501570   2.805390   2.785421
     9  H    2.153000   2.798755   3.795942   2.610411   3.159220
    10  C    2.588589   3.939350   4.756191   4.275985   4.188360
    11  H    2.130153   2.687000   3.699011   3.029175   2.467959
    12  H    2.884330   4.324337   5.023410   4.566703   4.805790
    13  H    2.840440   4.225115   4.916225   4.796948   4.357123
    14  H    3.526618   4.720479   5.637021   4.932203   4.835198
                    6          7          8          9         10
     6  Cl   0.000000
     7  H    2.355697   0.000000
     8  C    2.765654   2.155005   0.000000
     9  H    2.937923   3.051852   1.096363   0.000000
    10  C    3.279035   2.769127   1.537812   2.176686   0.000000
    11  H    3.711197   2.499214   1.097402   1.765893   2.160298
    12  H    2.909445   3.145460   2.184652   2.529726   1.092985
    13  H    3.663648   2.576868   2.183481   3.089355   1.096171
    14  H    4.265463   3.766840   2.178821   2.521398   1.095445
                   11         12         13         14
    11  H    0.000000
    12  H    3.077315   0.000000
    13  H    2.520656   1.773345   0.000000
    14  H    2.485858   1.771207   1.771707   0.000000
 Stoichiometry    C4H9Cl
 Framework group  C1[X(C4H9Cl)]
 Deg. of freedom    36
 Full point group                 C1      NOp   1
 Largest Abelian subgroup         C1      NOp   1
 Largest concise Abelian subgroup C1      NOp   1
                         Standard orientation:                         
 ---------------------------------------------------------------------
 Center     Atomic      Atomic             Coordinates (Angstroms)
 Number     Number       Type             X           Y           Z
 ---------------------------------------------------------------------
      1          6           0       -0.267593    0.423552    0.352471
      2          6           0       -1.315544    1.483342   -0.006125
      3          1           0       -2.265457    1.284000    0.499019
      4          1           0       -1.493317    1.494193   -1.085952
      5          1           0       -0.959251    2.473495    0.300418
      6         17           0       -0.903037   -1.217306   -0.069243
      7          1           0       -0.121851    0.416557    1.437259
      8          6           0        1.084600    0.688317   -0.327584
      9          1           0        0.946972    0.627064   -1.413548
     10          6           0        2.222557   -0.244206    0.119988
     11          1           0        1.359195    1.724585   -0.092981
     12          1           0        2.004847   -1.283908   -0.137382
     13          1           0        2.373157   -0.184124    1.204100
     14          1           0        3.163214    0.036302   -0.366304
 ---------------------------------------------------------------------
 Rotational constants (GHZ):      4.5678143      3.0505857      1.9773560
 Standard basis: 6-31G(d) (6D, 7F)
 There are    97 symmetry adapted basis functions of A   symmetry.
 Integral buffers will be    131072 words long.
 Raffenetti 2 integral format.
 Two-electron integral symmetry is turned on.
    97 basis functions,   200 primitive gaussians,    97 cartesian basis functions
    25 alpha electrons       25 beta electrons
       nuclear repulsion energy       232.5294124414 Hartrees.
 NAtoms=   14 NActive=   14 NUniq=   14 SFac= 1.00D+00 NAtFMM=   50 NAOKFM=F Big=F
 One-electron integrals computed using PRISM.
 NBasis=    97 RedAO= T  NBF=    97
 NBsUse=    97 1.00D-06 NBFU=    97
 Initial guess read from the read-write file.
 B after Tr=     0.000000    0.000000    0.000000
         Rot=    1.000000    0.000000    0.000000    0.000000 Ang=   0.00 deg.
 Initial guess orbital symmetries:
       Occupied  (A) (A) (A) (A) (A) (A) (A) (A) (A) (A) (A) (A)
                 (A) (A) (A) (A) (A) (A) (A) (A) (A) (A) (A) (A)
                 (A)
       Virtual   (A) (A) (A) (A) (A) (A) (A) (A) (A) (A) (A) (A)
                 (A) (A) (A) (A) (A) (A) (A) (A) (A) (A) (A) (A)
                 (A) (A) (A) (A) (A) (A) (A) (A) (A) (A) (A) (A)
                 (A) (A) (A) (A) (A) (A) (A) (A) (A) (A) (A) (A)
                 (A) (A) (A) (A) (A) (A) (A) (A) (A) (A) (A) (A)
                 (A) (A) (A) (A) (A) (A) (A) (A) (A) (A) (A) (A)
 Harris functional with IExCor=  402 diagonalized for initial guess.
 ExpMin= 1.43D-01 ExpMax= 2.52D+04 ExpMxC= 3.78D+03 IAcc=1 IRadAn=         1 AccDes= 0.00D+00
 HarFok:  IExCor=  402 AccDes= 0.00D+00 IRadAn=         1 IDoV= 1
 ScaDFX=  1.000000  1.000000  1.000000  1.000000
 FoFCou: FMM=F IPFlag=           0 FMFlag=      100000 FMFlg1=           0
         NFxFlg=           0 DoJE=T BraDBF=F KetDBF=T FulRan=T
         Omega=  0.000000  0.000000  1.000000  0.000000  0.000000 ICntrl=     500 IOpCl=  0
         NMat0=    1 NMatS0=    1 NMatT0=    0 NMatD0=    1 NMtDS0=    0 NMtDT0=    0
         I1Cent=           4 NGrid=           0.
 Petite list used in FoFCou.
 Requested convergence on RMS density matrix=1.00D-08 within 128 cycles.
 Requested convergence on MAX density matrix=1.00D-06.
 Requested convergence on             energy=1.00D-06.
 No special actions if energy rises.
 Keep R1 ints in memory in canonical form, NReq=12379667.
 Integral accuracy reduced to 1.0D-05 until final iterations.
 Initial convergence to 1.0D-05 achieved.  Increase integral accuracy.
 SCF Done:  E(RB3LYP) =  -618.056545361     A.U. after   11 cycles
             Convg  =    0.6370D-08             -V/T =  2.0049
 Calling FoFJK, ICntrl=      2127 FMM=F ISym2X=0 I1Cent= 0 IOpClX= 0 NMat=1 NMatS=1 NMatT=0.
 ***** Axes restored to original set *****
 -------------------------------------------------------------------
 Center     Atomic                   Forces (Hartrees/Bohr)
 Number     Number              X              Y              Z
 -------------------------------------------------------------------
      1        6           0.010455297    0.000531690    0.012752403
      2        6          -0.002954082    0.001874271   -0.002895437
      3        1          -0.000095452   -0.000010183    0.000393489
      4        1           0.000258249   -0.000704866    0.000456495
      5        1           0.000096122    0.000245893    0.000193797
      6       17          -0.005193056   -0.000706894   -0.005442958
      7        1          -0.001255517    0.000166191   -0.002544911
      8        6          -0.002610489    0.002882039   -0.005107417
      9        1          -0.000215267   -0.000032815    0.001074786
     10        6           0.001067633   -0.003902354    0.001324235
     11        1           0.000690311   -0.000966479    0.000750859
     12        1          -0.000309531    0.000179361   -0.000678086
     13        1          -0.000031625    0.000480208   -0.000243970
     14        1           0.000097405   -0.000036062   -0.000033285
 -------------------------------------------------------------------
 Cartesian Forces:  Max     0.012752403 RMS     0.003171510

 GradGradGradGradGradGradGradGradGradGradGradGradGradGradGradGradGradGrad
 Berny optimization.
 Using GEDIIS/GDIIS optimizer.
 Internal  Forces:  Max     0.007527464 RMS     0.001270087
 Search for a local minimum.
 Step number   2 out of a maximum of   74
 All quantities printed in internal units (Hartrees-Bohrs-Radians)
 Mixed Optimization -- RFO/linear search
 Update second derivatives using D2CorX and points    1    2
 DE= -2.62D-03 DEPred=-2.28D-03 R= 1.15D+00
 SS=  1.41D+00  RLast= 2.04D-01 DXNew= 5.0454D-01 6.1238D-01
 Trust test= 1.15D+00 RLast= 2.04D-01 DXMaxT set to 5.05D-01
 ITU=  1  0
 Use linear search instead of GDIIS.
     Eigenvalues ---    0.00230   0.00230   0.00241   0.03274   0.04022
     Eigenvalues ---    0.04732   0.04881   0.05420   0.05473   0.05496
     Eigenvalues ---    0.05617   0.08531   0.09194   0.12302   0.15613
     Eigenvalues ---    0.16000   0.16000   0.16000   0.16000   0.16115
     Eigenvalues ---    0.16964   0.20828   0.23054   0.23585   0.27439
     Eigenvalues ---    0.27631   0.27879   0.33299   0.33404   0.33435
     Eigenvalues ---    0.33445   0.33487   0.33541   0.33558   0.33573
     Eigenvalues ---    0.35614
 RFO step:  Lambda=-6.64679622D-04 EMin= 2.29878810D-03
 Quartic linear search produced a step of  0.27657.
 Iteration  1 RMS(Cart)=  0.01739843 RMS(Int)=  0.00027962
 Iteration  2 RMS(Cart)=  0.00035402 RMS(Int)=  0.00015440
 Iteration  3 RMS(Cart)=  0.00000007 RMS(Int)=  0.00015440
 Variable       Old X    -DE/DX   Delta X   Delta X   Delta X     New X
                                 (Linear)    (Quad)   (Total)
    R1        2.89686  -0.00286  -0.00916  -0.00955  -0.01871   2.87815
    R2        3.41933   0.00753   0.01991   0.02570   0.04561   3.46495
    R3        2.06841   0.00031  -0.00402   0.00278  -0.00124   2.06717
    R4        2.90367  -0.00241  -0.00885  -0.00769  -0.01654   2.88712
    R5        2.06771  -0.00034  -0.00414   0.00035  -0.00379   2.06392
    R6        2.06815   0.00043  -0.00358   0.00307  -0.00052   2.06763
    R7        2.07123   0.00025  -0.00259   0.00197  -0.00063   2.07060
    R8        2.07183   0.00059  -0.00324   0.00356   0.00032   2.07214
    R9        2.90604  -0.00336  -0.00697  -0.01276  -0.01973   2.88632
   R10        2.07379   0.00094  -0.00329   0.00492   0.00163   2.07542
   R11        2.06544   0.00068  -0.00416   0.00423   0.00008   2.06552
   R12        2.07146   0.00034  -0.00267   0.00234  -0.00033   2.07114
   R13        2.07009  -0.00008  -0.00352   0.00111  -0.00241   2.06768
    A1        1.90957  -0.00017   0.00313  -0.00953  -0.00634   1.90323
    A2        1.90422   0.00025   0.00083   0.02006   0.02037   1.92459
    A3        1.95944   0.00150   0.00543   0.01061   0.01558   1.97503
    A4        1.84621  -0.00070  -0.00954  -0.02300  -0.03236   1.81386
    A5        1.94137  -0.00141   0.00312  -0.01972  -0.01661   1.92476
    A6        1.89923   0.00043  -0.00369   0.02067   0.01634   1.91557
    A7        1.93857   0.00022   0.00500   0.00028   0.00526   1.94383
    A8        1.92699   0.00111   0.00036   0.00961   0.00993   1.93691
    A9        1.91442  -0.00059  -0.00433  -0.00437  -0.00868   1.90573
   A10        1.89262  -0.00048  -0.00078  -0.00085  -0.00171   1.89091
   A11        1.89407   0.00004   0.00027  -0.00152  -0.00123   1.89284
   A12        1.89631  -0.00034  -0.00055  -0.00336  -0.00391   1.89241
   A13        1.89472   0.00063  -0.00420   0.00713   0.00258   1.89731
   A14        2.00193  -0.00032   0.01201  -0.00459   0.00737   2.00929
   A15        1.86324  -0.00052  -0.01152  -0.00119  -0.01286   1.85038
   A16        1.92548  -0.00028   0.00474  -0.00378   0.00091   1.92639
   A17        1.87121  -0.00043  -0.00438  -0.00763  -0.01225   1.85897
   A18        1.90206   0.00089   0.00229   0.00978   0.01230   1.91435
   A19        1.94003   0.00018   0.00082   0.00102   0.00183   1.94187
   A20        1.93507   0.00053   0.00250   0.00293   0.00542   1.94049
   A21        1.92938  -0.00015   0.00288  -0.00198   0.00089   1.93027
   A22        1.88850  -0.00043  -0.00265  -0.00298  -0.00563   1.88287
   A23        1.88609   0.00003  -0.00085   0.00117   0.00031   1.88640
   A24        1.88287  -0.00019  -0.00296  -0.00025  -0.00323   1.87964
    D1        0.99125   0.00016  -0.00638  -0.00857  -0.01498   0.97627
    D2       -1.10894  -0.00012  -0.00888  -0.01407  -0.02302  -1.13197
    D3        3.08500  -0.00003  -0.00565  -0.01314  -0.01884   3.06616
    D4       -1.02092   0.00095   0.00281   0.01304   0.01604  -1.00488
    D5       -3.12112   0.00067   0.00032   0.00754   0.00800  -3.11312
    D6        1.07283   0.00076   0.00355   0.00847   0.01218   1.08501
    D7       -3.12771  -0.00073   0.00341  -0.03352  -0.03019   3.12529
    D8        1.05528  -0.00102   0.00091  -0.03901  -0.03823   1.01705
    D9       -1.03396  -0.00092   0.00415  -0.03808  -0.03405  -1.06801
   D10       -1.09799   0.00075  -0.00509   0.04708   0.04197  -1.05602
   D11        3.02280   0.00085  -0.01637   0.04976   0.03341   3.05621
   D12        0.91407   0.00029  -0.01886   0.04110   0.02249   0.93657
   D13        1.04844   0.00058   0.00493   0.02779   0.03262   1.08105
   D14       -1.11396   0.00068  -0.00635   0.03046   0.02406  -1.08991
   D15        3.06050   0.00012  -0.00884   0.02180   0.01314   3.07364
   D16        3.07553  -0.00082  -0.00714   0.00100  -0.00634   3.06919
   D17        0.91314  -0.00072  -0.01843   0.00367  -0.01490   0.89823
   D18       -1.19559  -0.00127  -0.02091  -0.00499  -0.02582  -1.22141
   D19        1.09803   0.00013   0.00328  -0.01547  -0.01217   1.08586
   D20       -1.00336   0.00019   0.00441  -0.01435  -0.00992  -1.01328
   D21       -3.09062   0.00019   0.00464  -0.01464  -0.00998  -3.10060
   D22       -1.04792  -0.00026  -0.00320  -0.01855  -0.02184  -1.06976
   D23        3.13388  -0.00019  -0.00208  -0.01744  -0.01960   3.11429
   D24        1.04662  -0.00020  -0.00184  -0.01773  -0.01966   1.02697
   D25       -3.09792  -0.00010  -0.00196  -0.01293  -0.01482  -3.11275
   D26        1.08388  -0.00003  -0.00084  -0.01181  -0.01258   1.07130
   D27       -1.00338  -0.00004  -0.00060  -0.01210  -0.01264  -1.01602
         Item               Value     Threshold  Converged?
 Maximum Force            0.007527     0.000450     NO 
 RMS     Force            0.001270     0.000300     NO 
 Maximum Displacement     0.051695     0.001800     NO 
 RMS     Displacement     0.017419     0.001200     NO 
 Predicted change in Energy=-4.674512D-04
 GradGradGradGradGradGradGradGradGradGradGradGradGradGradGradGradGradGrad

                          Input orientation:                          
 ---------------------------------------------------------------------
 Center     Atomic      Atomic             Coordinates (Angstroms)
 Number     Number       Type             X           Y           Z
 ---------------------------------------------------------------------
      1          6           0        0.645906   -0.144124    0.099501
      2          6           0        1.255474   -1.475078    0.519832
      3          1           0        1.680398   -2.005878   -0.334890
      4          1           0        0.504754   -2.119641    0.986849
      5          1           0        2.054817   -1.291658    1.246467
      6         17           0       -0.601273   -0.444331   -1.210614
      7          1           0        1.398776    0.479284   -0.391588
      8          6           0        0.018494    0.623307    1.262074
      9          1           0       -0.783305    0.012945    1.694461
     10          6           0       -0.502476    2.016177    0.913686
     11          1           0        0.799662    0.701910    2.030050
     12          1           0       -1.303002    1.965662    0.171183
     13          1           0        0.295616    2.646887    0.505682
     14          1           0       -0.896763    2.513683    1.804880
 ---------------------------------------------------------------------
                    Distance matrix (angstroms):
                    1          2          3          4          5
     1  C    0.000000
     2  C    1.523052   0.000000
     3  H    2.173706   1.092181   0.000000
     4  H    2.170248   1.094142   1.772590   0.000000
     5  H    2.148812   1.095715   1.775103   1.776416   0.000000
     6  Cl   1.833571   2.739414   2.900232   2.976374   3.716184
     7  H    1.093901   2.161192   2.501711   3.074700   2.499970
     8  C    1.527800   2.546422   3.496404   2.799279   2.795344
     9  H    2.147374   2.783988   3.776738   2.589930   3.155570
    10  C    2.578484   3.928660   4.743502   4.257330   4.194313
    11  H    2.113394   2.688457   3.701453   3.022647   2.482686
    12  H    2.873079   4.301866   4.992988   4.541255   4.800137
    13  H    2.842082   4.232271   4.926704   4.795315   4.376721
    14  H    3.514554   4.711018   5.625550   4.909290   4.848120
                    6          7          8          9         10
     6  Cl   0.000000
     7  H    2.350333   0.000000
     8  C    2.763720   2.158824   0.000000
     9  H    2.946472   3.054595   1.096532   0.000000
    10  C    3.252155   2.771378   1.527374   2.168275   0.000000
    11  H    3.711926   2.504562   1.098267   1.758716   2.160817
    12  H    2.865285   3.134587   2.176767   2.530527   1.093025
    13  H    3.647699   2.592404   2.178027   3.084625   1.095998
    14  H    4.234427   3.772632   2.169298   2.505745   1.094168
                   11         12         13         14
    11  H    0.000000
    12  H    3.077930   0.000000
    13  H    2.522042   1.769614   0.000000
    14  H    2.492204   1.770402   1.768452   0.000000
 Stoichiometry    C4H9Cl
 Framework group  C1[X(C4H9Cl)]
 Deg. of freedom    36
 Full point group                 C1      NOp   1
 Largest Abelian subgroup         C1      NOp   1
 Largest concise Abelian subgroup C1      NOp   1
                         Standard orientation:                         
 ---------------------------------------------------------------------
 Center     Atomic      Atomic             Coordinates (Angstroms)
 Number     Number       Type             X           Y           Z
 ---------------------------------------------------------------------
      1          6           0       -0.268563    0.443837    0.357446
      2          6           0       -1.329983    1.471535   -0.012571
      3          1           0       -2.283872    1.250423    0.471231
      4          1           0       -1.490409    1.496759   -1.094595
      5          1           0       -0.998581    2.464325    0.311668
      6         17           0       -0.882281   -1.230453   -0.069269
      7          1           0       -0.138144    0.407698    1.442944
      8          6           0        1.078248    0.701779   -0.316154
      9          1           0        0.941338    0.660683   -1.403329
     10          6           0        2.207609   -0.232570    0.113269
     11          1           0        1.344384    1.739452   -0.074084
     12          1           0        1.981782   -1.270980   -0.142487
     13          1           0        2.374328   -0.181120    1.195290
     14          1           0        3.144076    0.042987   -0.380999
 ---------------------------------------------------------------------
 Rotational constants (GHZ):      4.5323232      3.0863175      1.9841282
 Standard basis: 6-31G(d) (6D, 7F)
 There are    97 symmetry adapted basis functions of A   symmetry.
 Integral buffers will be    131072 words long.
 Raffenetti 2 integral format.
 Two-electron integral symmetry is turned on.
    97 basis functions,   200 primitive gaussians,    97 cartesian basis functions
    25 alpha electrons       25 beta electrons
       nuclear repulsion energy       232.6542143227 Hartrees.
 NAtoms=   14 NActive=   14 NUniq=   14 SFac= 1.00D+00 NAtFMM=   50 NAOKFM=F Big=F
 One-electron integrals computed using PRISM.
 NBasis=    97 RedAO= T  NBF=    97
 NBsUse=    97 1.00D-06 NBFU=    97
 Initial guess read from the read-write file.
 B after Tr=     0.000000    0.000000    0.000000
         Rot=    1.000000    0.000000    0.000000    0.000000 Ang=   0.00 deg.
 Initial guess orbital symmetries:
       Occupied  (A) (A) (A) (A) (A) (A) (A) (A) (A) (A) (A) (A)
                 (A) (A) (A) (A) (A) (A) (A) (A) (A) (A) (A) (A)
                 (A)
       Virtual   (A) (A) (A) (A) (A) (A) (A) (A) (A) (A) (A) (A)
                 (A) (A) (A) (A) (A) (A) (A) (A) (A) (A) (A) (A)
                 (A) (A) (A) (A) (A) (A) (A) (A) (A) (A) (A) (A)
                 (A) (A) (A) (A) (A) (A) (A) (A) (A) (A) (A) (A)
                 (A) (A) (A) (A) (A) (A) (A) (A) (A) (A) (A) (A)
                 (A) (A) (A) (A) (A) (A) (A) (A) (A) (A) (A) (A)
 Harris functional with IExCor=  402 diagonalized for initial guess.
 ExpMin= 1.43D-01 ExpMax= 2.52D+04 ExpMxC= 3.78D+03 IAcc=1 IRadAn=         1 AccDes= 0.00D+00
 HarFok:  IExCor=  402 AccDes= 0.00D+00 IRadAn=         1 IDoV= 1
 ScaDFX=  1.000000  1.000000  1.000000  1.000000
 FoFCou: FMM=F IPFlag=           0 FMFlag=      100000 FMFlg1=           0
         NFxFlg=           0 DoJE=T BraDBF=F KetDBF=T FulRan=T
         Omega=  0.000000  0.000000  1.000000  0.000000  0.000000 ICntrl=     500 IOpCl=  0
         NMat0=    1 NMatS0=    1 NMatT0=    0 NMatD0=    1 NMtDS0=    0 NMtDT0=    0
         I1Cent=           4 NGrid=           0.
 Petite list used in FoFCou.
 Requested convergence on RMS density matrix=1.00D-08 within 128 cycles.
 Requested convergence on MAX density matrix=1.00D-06.
 Requested convergence on             energy=1.00D-06.
 No special actions if energy rises.
 Keep R1 ints in memory in canonical form, NReq=12379667.
 Integral accuracy reduced to 1.0D-05 until final iterations.
 Initial convergence to 1.0D-05 achieved.  Increase integral accuracy.
 SCF Done:  E(RB3LYP) =  -618.057019925     A.U. after   10 cycles
             Convg  =    0.6870D-08             -V/T =  2.0049
 Calling FoFJK, ICntrl=      2127 FMM=F ISym2X=0 I1Cent= 0 IOpClX= 0 NMat=1 NMatS=1 NMatT=0.
 ***** Axes restored to original set *****
 -------------------------------------------------------------------
 Center     Atomic                   Forces (Hartrees/Bohr)
 Number     Number              X              Y              Z
 -------------------------------------------------------------------
      1        6           0.001746205    0.000938707    0.001224096
      2        6          -0.000489981    0.000321361   -0.000375452
      3        1           0.000466746   -0.000271738   -0.000663368
      4        1          -0.000431038   -0.000203914    0.000276159
      5        1           0.000753618   -0.000257294    0.000672032
      6       17          -0.002032554   -0.001018053   -0.002115082
      7        1           0.000328315   -0.000064491   -0.000273808
      8        6          -0.000118737   -0.001178490   -0.000144247
      9        1          -0.000524887   -0.000290180    0.000308317
     10        6           0.000248420    0.000750299   -0.000136304
     11        1           0.000392459    0.000582719    0.001155985
     12        1          -0.000476464   -0.000084867   -0.000319615
     13        1           0.000441782    0.000409959   -0.000271817
     14        1          -0.000303886    0.000365983    0.000663104
 -------------------------------------------------------------------
 Cartesian Forces:  Max     0.002115082 RMS     0.000750454

 GradGradGradGradGradGradGradGradGradGradGradGradGradGradGradGradGradGrad
 Berny optimization.
 Using GEDIIS/GDIIS optimizer.
 Internal  Forces:  Max     0.003058164 RMS     0.000576931
 Search for a local minimum.
 Step number   3 out of a maximum of   74
 All quantities printed in internal units (Hartrees-Bohrs-Radians)
 Mixed Optimization -- En-DIIS/RFO-DIIS
 Update second derivatives using D2CorX and points    1    2    3
 DE= -4.75D-04 DEPred=-4.67D-04 R= 1.02D+00
 SS=  1.41D+00  RLast= 1.40D-01 DXNew= 8.4853D-01 4.2003D-01
 Trust test= 1.02D+00 RLast= 1.40D-01 DXMaxT set to 5.05D-01
 ITU=  1  1  0
 Use linear search instead of GDIIS.
     Eigenvalues ---    0.00230   0.00230   0.00248   0.03161   0.03770
     Eigenvalues ---    0.04681   0.04926   0.05393   0.05402   0.05469
     Eigenvalues ---    0.05642   0.08768   0.09612   0.12593   0.15211
     Eigenvalues ---    0.16000   0.16000   0.16000   0.16113   0.16128
     Eigenvalues ---    0.17225   0.17840   0.22932   0.23390   0.27471
     Eigenvalues ---    0.27652   0.29473   0.33295   0.33406   0.33445
     Eigenvalues ---    0.33475   0.33505   0.33545   0.33558   0.33690
     Eigenvalues ---    0.36912
 RFO step:  Lambda=-1.17843865D-04 EMin= 2.29699127D-03
 Quartic linear search produced a step of  0.03685.
 Iteration  1 RMS(Cart)=  0.01740803 RMS(Int)=  0.00010505
 Iteration  2 RMS(Cart)=  0.00014600 RMS(Int)=  0.00000859
 Iteration  3 RMS(Cart)=  0.00000001 RMS(Int)=  0.00000859
 Variable       Old X    -DE/DX   Delta X   Delta X   Delta X     New X
                                 (Linear)    (Quad)   (Total)
    R1        2.87815   0.00046  -0.00069  -0.00045  -0.00113   2.87702
    R2        3.46495   0.00306   0.00168   0.01616   0.01784   3.48279
    R3        2.06717   0.00031  -0.00005   0.00064   0.00060   2.06777
    R4        2.88712   0.00137  -0.00061   0.00323   0.00262   2.88975
    R5        2.06392   0.00083  -0.00014   0.00201   0.00187   2.06579
    R6        2.06763   0.00053  -0.00002   0.00140   0.00138   2.06901
    R7        2.07060   0.00096  -0.00002   0.00274   0.00271   2.07332
    R8        2.07214   0.00067   0.00001   0.00192   0.00193   2.07408
    R9        2.88632   0.00136  -0.00073   0.00297   0.00224   2.88856
   R10        2.07542   0.00113   0.00006   0.00346   0.00352   2.07894
   R11        2.06552   0.00057   0.00000   0.00154   0.00155   2.06706
   R12        2.07114   0.00066  -0.00001   0.00185   0.00183   2.07297
   R13        2.06768   0.00082  -0.00009   0.00211   0.00202   2.06970
    A1        1.90323  -0.00066  -0.00023  -0.00559  -0.00582   1.89741
    A2        1.92459  -0.00021   0.00075   0.00003   0.00073   1.92532
    A3        1.97503   0.00032   0.00057   0.00245   0.00300   1.97803
    A4        1.81386   0.00017  -0.00119  -0.00161  -0.00279   1.81106
    A5        1.92476   0.00029  -0.00061   0.00012  -0.00049   1.92428
    A6        1.91557   0.00007   0.00060   0.00419   0.00476   1.92033
    A7        1.94383  -0.00016   0.00019  -0.00040  -0.00021   1.94361
    A8        1.93691  -0.00024   0.00037  -0.00073  -0.00037   1.93655
    A9        1.90573   0.00065  -0.00032   0.00335   0.00303   1.90876
   A10        1.89091   0.00018  -0.00006   0.00062   0.00056   1.89146
   A11        1.89284  -0.00024  -0.00005  -0.00150  -0.00155   1.89130
   A12        1.89241  -0.00019  -0.00014  -0.00142  -0.00156   1.89085
   A13        1.89731  -0.00002   0.00010   0.00115   0.00124   1.89855
   A14        2.00929  -0.00005   0.00027   0.00145   0.00172   2.01101
   A15        1.85038   0.00058  -0.00047   0.00373   0.00325   1.85363
   A16        1.92639   0.00010   0.00003   0.00058   0.00061   1.92699
   A17        1.85897  -0.00005  -0.00045  -0.00250  -0.00295   1.85601
   A18        1.91435  -0.00055   0.00045  -0.00463  -0.00417   1.91018
   A19        1.94187  -0.00010   0.00007  -0.00059  -0.00053   1.94134
   A20        1.94049   0.00011   0.00020   0.00159   0.00179   1.94227
   A21        1.93027  -0.00001   0.00003   0.00005   0.00008   1.93035
   A22        1.88287   0.00002  -0.00021  -0.00029  -0.00050   1.88237
   A23        1.88640   0.00000   0.00001  -0.00055  -0.00054   1.88586
   A24        1.87964  -0.00002  -0.00012  -0.00025  -0.00037   1.87927
    D1        0.97627  -0.00012  -0.00055   0.01090   0.01035   0.98662
    D2       -1.13197  -0.00008  -0.00085   0.01088   0.01003  -1.12193
    D3        3.06616  -0.00010  -0.00069   0.01095   0.01026   3.07642
    D4       -1.00488   0.00016   0.00059   0.01589   0.01649  -0.98839
    D5       -3.11312   0.00020   0.00029   0.01588   0.01617  -3.09695
    D6        1.08501   0.00018   0.00045   0.01595   0.01640   1.10141
    D7        3.12529  -0.00001  -0.00111   0.00862   0.00751   3.13279
    D8        1.01705   0.00004  -0.00141   0.00861   0.00719   1.02424
    D9       -1.06801   0.00001  -0.00125   0.00868   0.00742  -1.06059
   D10       -1.05602   0.00002   0.00155  -0.02677  -0.02521  -1.08123
   D11        3.05621  -0.00007   0.00123  -0.02952  -0.02828   3.02793
   D12        0.93657   0.00024   0.00083  -0.02725  -0.02642   0.91015
   D13        1.08105  -0.00039   0.00120  -0.03221  -0.03101   1.05005
   D14       -1.08991  -0.00048   0.00089  -0.03495  -0.03407  -1.12397
   D15        3.07364  -0.00016   0.00048  -0.03269  -0.03221   3.04143
   D16        3.06919   0.00001  -0.00023  -0.03171  -0.03196   3.03723
   D17        0.89823  -0.00007  -0.00055  -0.03446  -0.03502   0.86321
   D18       -1.22141   0.00024  -0.00095  -0.03220  -0.03316  -1.25457
   D19        1.08586  -0.00004  -0.00045   0.00801   0.00757   1.09343
   D20       -1.01328  -0.00007  -0.00037   0.00771   0.00734  -1.00593
   D21       -3.10060  -0.00011  -0.00037   0.00696   0.00659  -3.09400
   D22       -1.06976  -0.00006  -0.00080   0.00491   0.00411  -1.06565
   D23        3.11429  -0.00009  -0.00072   0.00461   0.00389   3.11817
   D24        1.02697  -0.00013  -0.00072   0.00386   0.00313   1.03010
   D25       -3.11275   0.00026  -0.00055   0.01039   0.00984  -3.10291
   D26        1.07130   0.00024  -0.00046   0.01009   0.00962   1.08092
   D27       -1.01602   0.00019  -0.00047   0.00933   0.00887  -1.00715
         Item               Value     Threshold  Converged?
 Maximum Force            0.003058     0.000450     NO 
 RMS     Force            0.000577     0.000300     NO 
 Maximum Displacement     0.061954     0.001800     NO 
 RMS     Displacement     0.017413     0.001200     NO 
 Predicted change in Energy=-6.027998D-05
 GradGradGradGradGradGradGradGradGradGradGradGradGradGradGradGradGradGrad

                          Input orientation:                          
 ---------------------------------------------------------------------
 Center     Atomic      Atomic             Coordinates (Angstroms)
 Number     Number       Type             X           Y           Z
 ---------------------------------------------------------------------
      1          6           0        0.639389   -0.148188    0.098486
      2          6           0        1.263883   -1.471286    0.519530
      3          1           0        1.697394   -1.996889   -0.335354
      4          1           0        0.519308   -2.125101    0.985235
      5          1           0        2.061062   -1.281455    1.249057
      6         17           0       -0.618166   -0.477116   -1.208055
      7          1           0        1.381131    0.478479   -0.405916
      8          6           0        0.007549    0.620103    1.259918
      9          1           0       -0.805243    0.015757    1.682716
     10          6           0       -0.494006    2.022692    0.916869
     11          1           0        0.780585    0.688126    2.039708
     12          1           0       -1.292957    1.986165    0.170655
     13          1           0        0.313390    2.647023    0.514796
     14          1           0       -0.886241    2.520834    1.809928
 ---------------------------------------------------------------------
                    Distance matrix (angstroms):
                    1          2          3          4          5
     1  C    0.000000
     2  C    1.522451   0.000000
     3  H    2.173773   1.093169   0.000000
     4  H    2.170007   1.094873   1.774339   0.000000
     5  H    2.151572   1.097151   1.776080   1.777173   0.000000
     6  Cl   1.843011   2.741356   2.903987   2.969886   3.723255
     7  H    1.094218   2.161430   2.496488   3.075169   2.509703
     8  C    1.529188   2.549599   3.499874   2.805974   2.798742
     9  H    2.150262   2.800996   3.792959   2.612314   3.175928
    10  C    2.582065   3.931404   4.746297   4.270324   4.190001
    11  H    2.118419   2.684693   3.700103   3.015696   2.478709
    12  H    2.880040   4.314291   5.006292   4.566218   4.805178
    13  H    2.844784   4.226574   4.919771   4.799675   4.361931
    14  H    3.518559   4.714358   5.629140   4.923453   4.843405
                    6          7          8          9         10
     6  Cl   0.000000
     7  H    2.356646   0.000000
     8  C    2.772418   2.163743   0.000000
     9  H    2.938449   3.058876   1.097554   0.000000
    10  C    3.283255   2.765952   1.528560   2.170525   0.000000
    11  H    3.723206   2.526991   1.100129   1.759083   2.160189
    12  H    2.902402   3.123506   2.178057   2.531146   1.093843
    13  H    3.687310   2.586574   2.181089   3.088517   1.096969
    14  H    4.262369   3.771226   2.171209   2.509612   1.095238
                   11         12         13         14
    11  H    0.000000
    12  H    3.078610   0.000000
    13  H    2.526046   1.770739   0.000000
    14  H    2.487956   1.771582   1.769859   0.000000
 Stoichiometry    C4H9Cl
 Framework group  C1[X(C4H9Cl)]
 Deg. of freedom    36
 Full point group                 C1      NOp   1
 Largest Abelian subgroup         C1      NOp   1
 Largest concise Abelian subgroup C1      NOp   1
                         Standard orientation:                         
 ---------------------------------------------------------------------
 Center     Atomic      Atomic             Coordinates (Angstroms)
 Number     Number       Type             X           Y           Z
 ---------------------------------------------------------------------
      1          6           0       -0.255564    0.448574    0.356256
      2          6           0       -1.299902    1.495226   -0.006695
      3          1           0       -2.251673    1.298255    0.493658
      4          1           0       -1.475610    1.514807   -1.087200
      5          1           0       -0.944977    2.486016    0.303314
      6         17           0       -0.916501   -1.218472   -0.068961
      7          1           0       -0.121212    0.406391    1.441375
      8          6           0        1.092235    0.674458   -0.329916
      9          1           0        0.951450    0.606357   -1.416270
     10          6           0        2.217069   -0.257052    0.121232
     11          1           0        1.373262    1.716958   -0.118960
     12          1           0        1.984442   -1.300365   -0.110881
     13          1           0        2.386032   -0.182725    1.202558
     14          1           0        3.155769    0.001095   -0.380514
 ---------------------------------------------------------------------
 Rotational constants (GHZ):      4.5346574      3.0476968      1.9710897
 Standard basis: 6-31G(d) (6D, 7F)
 There are    97 symmetry adapted basis functions of A   symmetry.
 Integral buffers will be    131072 words long.
 Raffenetti 2 integral format.
 Two-electron integral symmetry is turned on.
    97 basis functions,   200 primitive gaussians,    97 cartesian basis functions
    25 alpha electrons       25 beta electrons
       nuclear repulsion energy       232.0766670395 Hartrees.
 NAtoms=   14 NActive=   14 NUniq=   14 SFac= 1.00D+00 NAtFMM=   50 NAOKFM=F Big=F
 One-electron integrals computed using PRISM.
 NBasis=    97 RedAO= T  NBF=    97
 NBsUse=    97 1.00D-06 NBFU=    97
 Initial guess read from the read-write file.
 B after Tr=     0.000000    0.000000    0.000000
         Rot=    1.000000    0.000000    0.000000    0.000000 Ang=   0.00 deg.
 Initial guess orbital symmetries:
       Occupied  (A) (A) (A) (A) (A) (A) (A) (A) (A) (A) (A) (A)
                 (A) (A) (A) (A) (A) (A) (A) (A) (A) (A) (A) (A)
                 (A)
       Virtual   (A) (A) (A) (A) (A) (A) (A) (A) (A) (A) (A) (A)
                 (A) (A) (A) (A) (A) (A) (A) (A) (A) (A) (A) (A)
                 (A) (A) (A) (A) (A) (A) (A) (A) (A) (A) (A) (A)
                 (A) (A) (A) (A) (A) (A) (A) (A) (A) (A) (A) (A)
                 (A) (A) (A) (A) (A) (A) (A) (A) (A) (A) (A) (A)
                 (A) (A) (A) (A) (A) (A) (A) (A) (A) (A) (A) (A)
 Harris functional with IExCor=  402 diagonalized for initial guess.
 ExpMin= 1.43D-01 ExpMax= 2.52D+04 ExpMxC= 3.78D+03 IAcc=1 IRadAn=         1 AccDes= 0.00D+00
 HarFok:  IExCor=  402 AccDes= 0.00D+00 IRadAn=         1 IDoV= 1
 ScaDFX=  1.000000  1.000000  1.000000  1.000000
 FoFCou: FMM=F IPFlag=           0 FMFlag=      100000 FMFlg1=           0
         NFxFlg=           0 DoJE=T BraDBF=F KetDBF=T FulRan=T
         Omega=  0.000000  0.000000  1.000000  0.000000  0.000000 ICntrl=     500 IOpCl=  0
         NMat0=    1 NMatS0=    1 NMatT0=    0 NMatD0=    1 NMtDS0=    0 NMtDT0=    0
         I1Cent=           4 NGrid=           0.
 Petite list used in FoFCou.
 Requested convergence on RMS density matrix=1.00D-08 within 128 cycles.
 Requested convergence on MAX density matrix=1.00D-06.
 Requested convergence on             energy=1.00D-06.
 No special actions if energy rises.
 Keep R1 ints in memory in canonical form, NReq=12379667.
 Integral accuracy reduced to 1.0D-05 until final iterations.
 Initial convergence to 1.0D-05 achieved.  Increase integral accuracy.
 SCF Done:  E(RB3LYP) =  -618.057069571     A.U. after   11 cycles
             Convg  =    0.7358D-08             -V/T =  2.0049
 Calling FoFJK, ICntrl=      2127 FMM=F ISym2X=0 I1Cent= 0 IOpClX= 0 NMat=1 NMatS=1 NMatT=0.
 ***** Axes restored to original set *****
 -------------------------------------------------------------------
 Center     Atomic                   Forces (Hartrees/Bohr)
 Number     Number              X              Y              Z
 -------------------------------------------------------------------
      1        6           0.000152082    0.000753434    0.000092745
      2        6           0.000026319   -0.000410853    0.000161224
      3        1           0.000038694    0.000002502   -0.000170781
      4        1          -0.000060188    0.000032229    0.000043141
      5        1           0.000092238   -0.000077255    0.000048658
      6       17          -0.000343088    0.000091150   -0.000111664
      7        1          -0.000028384   -0.000026856    0.000058504
      8        6           0.000442215   -0.001037510    0.000565510
      9        1           0.000009407    0.000051694   -0.000171426
     10        6          -0.000168914    0.000597416   -0.000549054
     11        1          -0.000028146    0.000254995    0.000018022
     12        1          -0.000148708   -0.000069893   -0.000116901
     13        1           0.000095022   -0.000124608    0.000039964
     14        1          -0.000078549   -0.000036444    0.000092057
 -------------------------------------------------------------------
 Cartesian Forces:  Max     0.001037510 RMS     0.000286693

 GradGradGradGradGradGradGradGradGradGradGradGradGradGradGradGradGradGrad
 Berny optimization.
 Using GEDIIS/GDIIS optimizer.
 Internal  Forces:  Max     0.000833822 RMS     0.000203314
 Search for a local minimum.
 Step number   4 out of a maximum of   74
 All quantities printed in internal units (Hartrees-Bohrs-Radians)
 Mixed Optimization -- En-DIIS/RFO-DIIS
 Swaping is turned off.
 Update second derivatives using D2CorX and points    1    2    3    4
 DE= -4.96D-05 DEPred=-6.03D-05 R= 8.24D-01
 SS=  1.41D+00  RLast= 1.04D-01 DXNew= 8.4853D-01 3.1303D-01
 Trust test= 8.24D-01 RLast= 1.04D-01 DXMaxT set to 5.05D-01
 ITU=  1  1  1  0
     Eigenvalues ---    0.00230   0.00230   0.00333   0.03278   0.03442
     Eigenvalues ---    0.04781   0.04941   0.05387   0.05404   0.05463
     Eigenvalues ---    0.05627   0.08707   0.09761   0.12570   0.14214
     Eigenvalues ---    0.16000   0.16000   0.16002   0.16008   0.16118
     Eigenvalues ---    0.16360   0.17556   0.22963   0.24078   0.27621
     Eigenvalues ---    0.27679   0.29101   0.33299   0.33416   0.33437
     Eigenvalues ---    0.33447   0.33501   0.33545   0.33555   0.33748
     Eigenvalues ---    0.35644
 En-DIIS/RFO-DIIS IScMMF=        0 using points:     4    3
 RFO step:  Lambda=-6.68775712D-06.
 DidBck=F Rises=F RFO-DIIS coefs:    0.88286    0.11714
 Iteration  1 RMS(Cart)=  0.01114464 RMS(Int)=  0.00004398
 Iteration  2 RMS(Cart)=  0.00006297 RMS(Int)=  0.00000113
 Iteration  3 RMS(Cart)=  0.00000000 RMS(Int)=  0.00000113
 Variable       Old X    -DE/DX   Delta X   Delta X   Delta X     New X
                                  (DIIS)     (GDIIS)  (Total)
    R1        2.87702   0.00045   0.00013   0.00086   0.00099   2.87800
    R2        3.48279   0.00030  -0.00209   0.00680   0.00471   3.48750
    R3        2.06777  -0.00006  -0.00007  -0.00033  -0.00040   2.06737
    R4        2.88975  -0.00032  -0.00031  -0.00051  -0.00081   2.88893
    R5        2.06579   0.00015  -0.00022   0.00069   0.00048   2.06626
    R6        2.06901   0.00004  -0.00016   0.00019   0.00003   2.06904
    R7        2.07332   0.00009  -0.00032   0.00083   0.00051   2.07383
    R8        2.07408  -0.00010  -0.00023   0.00000  -0.00023   2.07385
    R9        2.88856   0.00055  -0.00026   0.00248   0.00222   2.89078
   R10        2.07894   0.00001  -0.00041   0.00073   0.00031   2.07926
   R11        2.06706   0.00019  -0.00018   0.00056   0.00038   2.06744
   R12        2.07297  -0.00002  -0.00021   0.00027   0.00005   2.07302
   R13        2.06970   0.00009  -0.00024   0.00059   0.00036   2.07006
    A1        1.89741   0.00004   0.00068  -0.00156  -0.00087   1.89654
    A2        1.92532  -0.00007  -0.00009   0.00078   0.00070   1.92602
    A3        1.97803   0.00038  -0.00035   0.00227   0.00192   1.97994
    A4        1.81106   0.00010   0.00033  -0.00072  -0.00039   1.81067
    A5        1.92428  -0.00042   0.00006  -0.00212  -0.00206   1.92222
    A6        1.92033  -0.00006  -0.00056   0.00102   0.00046   1.92079
    A7        1.94361  -0.00015   0.00002  -0.00066  -0.00064   1.94298
    A8        1.93655  -0.00008   0.00004  -0.00091  -0.00087   1.93568
    A9        1.90876   0.00018  -0.00035   0.00189   0.00154   1.91030
   A10        1.89146   0.00010  -0.00007   0.00049   0.00042   1.89189
   A11        1.89130  -0.00001   0.00018  -0.00043  -0.00025   1.89105
   A12        1.89085  -0.00003   0.00018  -0.00038  -0.00020   1.89065
   A13        1.89855   0.00019  -0.00015  -0.00094  -0.00109   1.89746
   A14        2.01101  -0.00083  -0.00020  -0.00247  -0.00267   2.00834
   A15        1.85363   0.00044  -0.00038   0.00374   0.00336   1.85699
   A16        1.92699   0.00019  -0.00007  -0.00041  -0.00049   1.92651
   A17        1.85601  -0.00005   0.00035   0.00096   0.00131   1.85732
   A18        1.91018   0.00013   0.00049  -0.00047   0.00002   1.91020
   A19        1.94134  -0.00004   0.00006  -0.00040  -0.00033   1.94101
   A20        1.94227  -0.00019  -0.00021  -0.00042  -0.00063   1.94164
   A21        1.93035  -0.00005  -0.00001   0.00003   0.00002   1.93037
   A22        1.88237   0.00013   0.00006   0.00051   0.00057   1.88294
   A23        1.88586   0.00004   0.00006  -0.00012  -0.00006   1.88580
   A24        1.87927   0.00013   0.00004   0.00044   0.00049   1.87975
    D1        0.98662   0.00009  -0.00121   0.00010  -0.00111   0.98550
    D2       -1.12193   0.00013  -0.00118   0.00055  -0.00063  -1.12256
    D3        3.07642   0.00010  -0.00120   0.00038  -0.00082   3.07559
    D4       -0.98839  -0.00001  -0.00193   0.00140  -0.00053  -0.98893
    D5       -3.09695   0.00003  -0.00189   0.00185  -0.00005  -3.09699
    D6        1.10141   0.00000  -0.00192   0.00168  -0.00024   1.10116
    D7        3.13279  -0.00016  -0.00088  -0.00221  -0.00309   3.12970
    D8        1.02424  -0.00012  -0.00084  -0.00176  -0.00261   1.02163
    D9       -1.06059  -0.00015  -0.00087  -0.00193  -0.00280  -1.06340
   D10       -1.08123  -0.00003   0.00295   0.01418   0.01713  -1.06410
   D11        3.02793   0.00018   0.00331   0.01730   0.02061   3.04855
   D12        0.91015   0.00022   0.00309   0.01673   0.01982   0.92997
   D13        1.05005  -0.00003   0.00363   0.01219   0.01583   1.06587
   D14       -1.12397   0.00019   0.00399   0.01532   0.01931  -1.10467
   D15        3.04143   0.00023   0.00377   0.01474   0.01852   3.05995
   D16        3.03723  -0.00018   0.00374   0.01071   0.01446   3.05169
   D17        0.86321   0.00003   0.00410   0.01384   0.01794   0.88115
   D18       -1.25457   0.00007   0.00388   0.01326   0.01715  -1.23742
   D19        1.09343  -0.00012  -0.00089  -0.00443  -0.00532   1.08811
   D20       -1.00593  -0.00012  -0.00086  -0.00453  -0.00539  -1.01132
   D21       -3.09400  -0.00013  -0.00077  -0.00483  -0.00560  -3.09960
   D22       -1.06565   0.00011  -0.00048  -0.00096  -0.00144  -1.06709
   D23        3.11817   0.00010  -0.00046  -0.00105  -0.00151   3.11667
   D24        1.03010   0.00010  -0.00037  -0.00135  -0.00172   1.02838
   D25       -3.10291  -0.00002  -0.00115  -0.00161  -0.00276  -3.10566
   D26        1.08092  -0.00002  -0.00113  -0.00170  -0.00283   1.07809
   D27       -1.00715  -0.00003  -0.00104  -0.00200  -0.00304  -1.01019
[...]
   D25       -3.10518   0.00000  -0.00006  -0.00027  -0.00033  -3.10551
   D26        1.07837   0.00000  -0.00006  -0.00026  -0.00032   1.07805
   D27       -1.00961   0.00000  -0.00005  -0.00021  -0.00026  -1.00988
         Item               Value     Threshold  Converged?
 Maximum Force            0.000040     0.000450     YES
 RMS     Force            0.000014     0.000300     YES
 Maximum Displacement     0.000490     0.001800     YES
 RMS     Displacement     0.000193     0.001200     YES
 Predicted change in Energy=-4.431634D-08
 Optimization completed.
    -- Stationary point found.
                           ----------------------------
                           !   Optimized Parameters   !
                           ! (Angstroms and Degrees)  !
 --------------------------                            --------------------------
 ! Name  Definition              Value          Derivative Info.                !
 --------------------------------------------------------------------------------
 ! R1    R(1,2)                  1.5232         -DE/DX =    0.0                 !
 ! R2    R(1,6)                  1.8446         -DE/DX =    0.0                 !
 ! R3    R(1,7)                  1.0941         -DE/DX =    0.0                 !
 ! R4    R(1,8)                  1.5287         -DE/DX =    0.0                 !
 ! R5    R(2,3)                  1.0934         -DE/DX =    0.0                 !
 ! R6    R(2,4)                  1.0949         -DE/DX =    0.0                 !
 ! R7    R(2,5)                  1.0973         -DE/DX =    0.0                 !
 ! R8    R(8,9)                  1.0974         -DE/DX =    0.0                 !
 ! R9    R(8,10)                 1.53           -DE/DX =    0.0                 !
 ! R10   R(8,11)                 1.1001         -DE/DX =    0.0                 !
 ! R11   R(10,12)                1.094          -DE/DX =    0.0                 !
 ! R12   R(10,13)                1.0969         -DE/DX =    0.0                 !
 ! R13   R(10,14)                1.0954         -DE/DX =    0.0                 !
 ! A1    A(2,1,6)              108.6106         -DE/DX =    0.0                 !
 ! A2    A(2,1,7)              110.3818         -DE/DX =    0.0                 !
 ! A3    A(2,1,8)              113.4208         -DE/DX =    0.0                 !
 ! A4    A(6,1,7)              103.7787         -DE/DX =    0.0                 !
 ! A5    A(6,1,8)              110.1122         -DE/DX =    0.0                 !
 ! A6    A(7,1,8)              110.0899         -DE/DX =    0.0                 !
 ! A7    A(1,2,3)              111.2932         -DE/DX =    0.0                 !
 ! A8    A(1,2,4)              110.9128         -DE/DX =    0.0                 !
 ! A9    A(1,2,5)              109.4368         -DE/DX =    0.0                 !
 ! A10   A(3,2,4)              108.413          -DE/DX =    0.0                 !
 ! A11   A(3,2,5)              108.3586         -DE/DX =    0.0                 !
 ! A12   A(4,2,5)              108.3421         -DE/DX =    0.0                 !
 ! A13   A(1,8,9)              108.7711         -DE/DX =    0.0                 !
 ! A14   A(1,8,10)             115.0173         -DE/DX =    0.0                 !
 ! A15   A(1,8,11)             106.377          -DE/DX =    0.0                 !
 ! A16   A(9,8,10)             110.3801         -DE/DX =    0.0                 !
 ! A17   A(9,8,11)             106.4791         -DE/DX =    0.0                 !
 ! A18   A(10,8,11)            109.4111         -DE/DX =    0.0                 !
 ! A19   A(8,10,12)            111.2058         -DE/DX =    0.0                 !
 ! A20   A(8,10,13)            111.2011         -DE/DX =    0.0                 !
 ! A21   A(8,10,14)            110.5713         -DE/DX =    0.0                 !
 ! A22   A(12,10,13)           107.9217         -DE/DX =    0.0                 !
 ! A23   A(12,10,14)           108.0716         -DE/DX =    0.0                 !
 ! A24   A(13,10,14)           107.7286         -DE/DX =    0.0                 !
 ! D1    D(6,1,2,3)             56.5073         -DE/DX =    0.0                 !
 ! D2    D(6,1,2,4)            -64.2793         -DE/DX =    0.0                 !
 ! D3    D(6,1,2,5)            176.2431         -DE/DX =    0.0                 !
 ! D4    D(7,1,2,3)            -56.6471         -DE/DX =    0.0                 !
 ! D5    D(7,1,2,4)           -177.4337         -DE/DX =    0.0                 !
 ! D6    D(7,1,2,5)             63.0887         -DE/DX =    0.0                 !
 ! D7    D(8,1,2,3)            179.278          -DE/DX =    0.0                 !
 ! D8    D(8,1,2,4)             58.4914         -DE/DX =    0.0                 !
 ! D9    D(8,1,2,5)            -60.9862         -DE/DX =    0.0                 !
 ! D10   D(2,1,8,9)            -61.2164         -DE/DX =    0.0                 !
 ! D11   D(2,1,8,10)           174.4162         -DE/DX =    0.0                 !
 ! D12   D(2,1,8,11)            53.1236         -DE/DX =    0.0                 !
 ! D13   D(6,1,8,9)             60.7213         -DE/DX =    0.0                 !
 ! D14   D(6,1,8,10)           -63.6461         -DE/DX =    0.0                 !
 ! D15   D(6,1,8,11)           175.0613         -DE/DX =    0.0                 !
 ! D16   D(7,1,8,9)            174.5501         -DE/DX =    0.0                 !
 ! D17   D(7,1,8,10)            50.1827         -DE/DX =    0.0                 !
 ! D18   D(7,1,8,11)           -71.1099         -DE/DX =    0.0                 !
 ! D19   D(1,8,10,12)           62.4598         -DE/DX =    0.0                 !
 ! D20   D(1,8,10,13)          -57.8403         -DE/DX =    0.0                 !
 ! D21   D(1,8,10,14)         -177.4731         -DE/DX =    0.0                 !
 ! D22   D(9,8,10,12)          -61.0575         -DE/DX =    0.0                 !
 ! D23   D(9,8,10,13)          178.6424         -DE/DX =    0.0                 !
 ! D24   D(9,8,10,14)           59.0096         -DE/DX =    0.0                 !
 ! D25   D(11,8,10,12)        -177.9137         -DE/DX =    0.0                 !
 ! D26   D(11,8,10,13)          61.7862         -DE/DX =    0.0                 !
 ! D27   D(11,8,10,14)         -57.8466         -DE/DX =    0.0                 !
 --------------------------------------------------------------------------------
 GradGradGradGradGradGradGradGradGradGradGradGradGradGradGradGradGradGrad

                          Input orientation:                          
 ---------------------------------------------------------------------
 Center     Atomic      Atomic             Coordinates (Angstroms)
 Number     Number       Type             X           Y           Z
 ---------------------------------------------------------------------
      1          6           0        0.644923   -0.144970    0.102397
      2          6           0        1.261356   -1.474307    0.518401
      3          1           0        1.690983   -1.998557   -0.339589
      4          1           0        0.512043   -2.124723    0.981352
      5          1           0        2.060317   -1.293722    1.248579
      6         17           0       -0.615057   -0.464294   -1.206440
      7          1           0        1.389600    0.479840   -0.399674
      8          6           0        0.013292    0.621929    1.264162
      9          1           0       -0.795731    0.014762    1.689765
     10          6           0       -0.498002    2.020872    0.914096
     11          1           0        0.787432    0.699614    2.041902
     12          1           0       -1.296768    1.975029    0.167990
     13          1           0        0.306305    2.647446    0.509448
     14          1           0       -0.893616    2.520226    1.805186
 ---------------------------------------------------------------------
                    Distance matrix (angstroms):
                    1          2          3          4          5
     1  C    0.000000
     2  C    1.523215   0.000000
     3  H    2.173793   1.093419   0.000000
     4  H    2.170171   1.094913   1.775021   0.000000
     5  H    2.153301   1.097319   1.776366   1.777393   0.000000
     6  Cl   1.844606   2.741555   2.902277   2.968806   3.724606
     7  H    1.094078   2.162868   2.497378   3.075888   2.512394
     8  C    1.528656   2.551083   3.500516   2.805856   2.803618
     9  H    2.149591   2.796610   3.788863   2.605671   3.172347
    10  C    2.579923   3.932962   4.745439   4.267396   4.200405
    11  H    2.120214   2.696588   3.710529   3.029436   2.494591
    12  H    2.875563   4.308677   4.997367   4.554264   4.808578
    13  H    2.842171   4.230963   4.921741   4.799856   4.376719
    14  H    3.517082   4.717628   5.630241   4.922411   4.856103
                    6          7          8          9         10
     6  Cl   0.000000
     7  H    2.358158   0.000000
     8  C    2.771024   2.163970   0.000000
     9  H    2.941112   3.059041   1.097410   0.000000
    10  C    3.269009   2.768359   1.530036   2.171355   0.000000
    11  H    3.724698   2.524322   1.100094   1.760520   2.161020
    12  H    2.881680   3.126404   2.179158   2.531696   1.093985
    13  H    3.670981   2.588155   2.181323   3.088472   1.096925
    14  H    4.249100   3.773283   2.172262   2.510031   1.095403
                   11         12         13         14
    11  H    0.000000
    12  H    3.079305   0.000000
    13  H    2.524667   1.771605   0.000000
    14  H    2.489295   1.772056   1.770574   0.000000
 Stoichiometry    C4H9Cl
 Framework group  C1[X(C4H9Cl)]
 Deg. of freedom    36
 Full point group                 C1      NOp   1
 Largest Abelian subgroup         C1      NOp   1
 Largest concise Abelian subgroup C1      NOp   1
                         Standard orientation:                         
 ---------------------------------------------------------------------
 Center     Atomic      Atomic             Coordinates (Angstroms)
 Number     Number       Type             X           Y           Z
 ---------------------------------------------------------------------
      1          6           0       -0.259559    0.450548    0.358387
      2          6           0       -1.317101    1.483366   -0.009142
      3          1           0       -2.267656    1.272738    0.488497
      4          1           0       -1.488836    1.499153   -1.090387
      5          1           0       -0.977844    2.479710    0.301201
      6         17           0       -0.900030   -1.225613   -0.069226
      7          1           0       -0.127535    0.409985    1.443712
      8          6           0        1.086465    0.689227   -0.325749
      9          1           0        0.945926    0.628673   -1.412437
     10          6           0        2.213021   -0.245815    0.118747
     11          1           0        1.366490    1.729891   -0.104815
     12          1           0        1.980517   -1.287529   -0.121206
     13          1           0        2.381177   -0.178062    1.200587
     14          1           0        3.151306    0.016905   -0.381760
 ---------------------------------------------------------------------
 Rotational constants (GHZ):      4.5247043      3.0621386      1.9747930

 **********************************************************************

            Population analysis using the SCF density.

 **********************************************************************

 Orbital symmetries:
       Occupied  (A) (A) (A) (A) (A) (A) (A) (A) (A) (A) (A) (A)
                 (A) (A) (A) (A) (A) (A) (A) (A) (A) (A) (A) (A)
                 (A)
       Virtual   (A) (A) (A) (A) (A) (A) (A) (A) (A) (A) (A) (A)
                 (A) (A) (A) (A) (A) (A) (A) (A) (A) (A) (A) (A)
                 (A) (A) (A) (A) (A) (A) (A) (A) (A) (A) (A) (A)
                 (A) (A) (A) (A) (A) (A) (A) (A) (A) (A) (A) (A)
                 (A) (A) (A) (A) (A) (A) (A) (A) (A) (A) (A) (A)
                 (A) (A) (A) (A) (A) (A) (A) (A) (A) (A) (A) (A)
 The electronic state is 1-A.
 Alpha  occ. eigenvalues -- -101.52189 -10.25111 -10.19655 -10.19035 -10.17865
 Alpha  occ. eigenvalues --   -9.43839  -7.20196  -7.19272  -7.19266  -0.85559
 Alpha  occ. eigenvalues --   -0.76850  -0.73187  -0.64141  -0.57971  -0.47840
 Alpha  occ. eigenvalues --   -0.44709  -0.43984  -0.42401  -0.38702  -0.36903
 Alpha  occ. eigenvalues --   -0.35601  -0.34906  -0.34267  -0.28812  -0.28737
 Alpha virt. eigenvalues --    0.02665   0.08658   0.11821   0.12312   0.15322
 Alpha virt. eigenvalues --    0.16010   0.16865   0.17544   0.17799   0.19235
 Alpha virt. eigenvalues --    0.22190   0.23365   0.24571   0.40211   0.44191
 Alpha virt. eigenvalues --    0.46250   0.48136   0.49089   0.50646   0.54734
 Alpha virt. eigenvalues --    0.56994   0.58848   0.61930   0.62763   0.64910
 Alpha virt. eigenvalues --    0.71907   0.73457   0.77770   0.82553   0.85193
 Alpha virt. eigenvalues --    0.88064   0.89122   0.89501   0.89741   0.90824
 Alpha virt. eigenvalues --    0.91982   0.92943   0.95810   0.96798   0.98002
 Alpha virt. eigenvalues --    0.99010   1.04419   1.09505   1.14461   1.37318
 Alpha virt. eigenvalues --    1.41932   1.44865   1.52064   1.61491   1.66606
 Alpha virt. eigenvalues --    1.82433   1.86563   1.89263   1.92501   1.96181
 Alpha virt. eigenvalues --    1.99930   2.05802   2.14020   2.20333   2.24886
 Alpha virt. eigenvalues --    2.28523   2.35701   2.37735   2.38627   2.53656
 Alpha virt. eigenvalues --    2.66538   2.72041   4.09333   4.22132   4.28286
 Alpha virt. eigenvalues --    4.36364   4.49589
          Condensed to atoms (all electrons):
              1          2          3          4          5          6
     1  C    5.077091   0.355889  -0.028803  -0.035598  -0.028029   0.240161
     2  C    0.355889   5.123406   0.374854   0.377627   0.358245  -0.064304
     3  H   -0.028803   0.374854   0.540735  -0.027992  -0.028046  -0.000387
     4  H   -0.035598   0.377627  -0.027992   0.544343  -0.028212  -0.000413
     5  H   -0.028029   0.358245  -0.028046  -0.028212   0.570362   0.005320
     6  Cl   0.240161  -0.064304  -0.000387  -0.000413   0.005320  17.043395
     7  H    0.371944  -0.043516  -0.003366   0.005164  -0.001967  -0.051682
     8  C    0.361270  -0.044564   0.004485  -0.005287  -0.003250  -0.061062
     9  H   -0.040982  -0.003932  -0.000087   0.004675  -0.000030  -0.001157
    10  C   -0.043186   0.004262  -0.000143   0.000020  -0.000052  -0.007154
    11  H   -0.036561  -0.003641  -0.000023  -0.000105   0.003453   0.005439
    12  H   -0.005990   0.000094   0.000003   0.000004  -0.000006   0.009228
    13  H   -0.005028   0.000046   0.000000   0.000007   0.000002  -0.000060
    14  H    0.004421  -0.000126   0.000002   0.000001  -0.000006   0.000010
              7          8          9         10         11         12
     1  C    0.371944   0.361270  -0.040982  -0.043186  -0.036561  -0.005990
     2  C   -0.043516  -0.044564  -0.003932   0.004262  -0.003641   0.000094
     3  H   -0.003366   0.004485  -0.000087  -0.000143  -0.000023   0.000003
     4  H    0.005164  -0.005287   0.004675   0.000020  -0.000105   0.000004
     5  H   -0.001967  -0.003250  -0.000030  -0.000052   0.003453  -0.000006
     6  Cl  -0.051682  -0.061062  -0.001157  -0.007154   0.005439   0.009228
     7  H    0.584055  -0.046498   0.005936  -0.003861  -0.002119  -0.000101
     8  C   -0.046498   5.019061   0.375509   0.375998   0.363997  -0.032367
     9  H    0.005936   0.375509   0.576828  -0.035936  -0.034189  -0.003789
    10  C   -0.003861   0.375998  -0.035936   5.065017  -0.038081   0.380686
    11  H   -0.002119   0.363997  -0.034189  -0.038081   0.600547   0.004760
    12  H   -0.000101  -0.032367  -0.003789   0.380686   0.004760   0.533012
    13  H    0.005235  -0.036236   0.004912   0.377353  -0.003712  -0.029782
    14  H   -0.000048  -0.028169  -0.002791   0.372711  -0.003133  -0.028440
             13         14
     1  C   -0.005028   0.004421
     2  C    0.000046  -0.000126
     3  H    0.000000   0.000002
     4  H    0.000007   0.000001
     5  H    0.000002  -0.000006
     6  Cl  -0.000060   0.000010
     7  H    0.005235  -0.000048
     8  C   -0.036236  -0.028169
     9  H    0.004912  -0.002791
    10  C    0.377353   0.372711
    11  H   -0.003712  -0.003133
    12  H   -0.029782  -0.028440
    13  H    0.575189  -0.030902
    14  H   -0.030902   0.569310
 Mulliken atomic charges:
              1
     1  C   -0.186598
     2  C   -0.434340
     3  H    0.168768
     4  H    0.165764
     5  H    0.152216
     6  Cl  -0.117333
     7  H    0.180822
     8  C   -0.242889
     9  H    0.155031
    10  C   -0.447635
    11  H    0.143370
    12  H    0.172687
    13  H    0.142976
    14  H    0.147159
 Sum of Mulliken atomic charges =   0.00000
 Mulliken charges with hydrogens summed into heavy atoms:
              1
     1  C   -0.005776
     2  C    0.052409
     6  Cl  -0.117333
     8  C    0.055513
    10  C    0.015188
 Sum of Mulliken charges with hydrogens summed into heavy atoms =   0.00000
 Electronic spatial extent (au):  <R**2>=            655.6873
 Charge=              0.0000 electrons
 Dipole moment (field-independent basis, Debye):
    X=              0.8875    Y=              2.1179    Z=              0.3750  Tot=              2.3268
 Quadrupole moment (field-independent basis, Debye-Ang):
   XX=            -39.6683   YY=            -40.1437   ZZ=            -38.9637
   XY=             -1.3946   XZ=             -0.3157   YZ=              0.3260
 Traceless Quadrupole moment (field-independent basis, Debye-Ang):
   XX=             -0.0764   YY=             -0.5518   ZZ=              0.6282
   XY=             -1.3946   XZ=             -0.3157   YZ=              0.3260
 Octapole moment (field-independent basis, Debye-Ang**2):
  XXX=             -2.5044  YYY=             -2.9211  ZZZ=              0.4943  XYY=             -0.8962
  XXY=              0.6173  XXZ=             -0.3735  XZZ=             -0.8703  YZZ=             -0.2782
  YYZ=             -0.4211  XYZ=             -0.2162
 Hexadecapole moment (field-independent basis, Debye-Ang**3):
 XXXX=           -480.8343 YYYY=           -305.5459 ZZZZ=            -77.5616 XXXY=              3.4628
 XXXZ=             -4.8090 YYYX=              7.0904 YYYZ=              4.6305 ZZZX=              1.3453
 ZZZY=             -0.5410 XXYY=           -133.4686 XXZZ=            -93.4455 YYZZ=            -67.5029
 XXYZ=              0.8375 YYXZ=              0.9408 ZZXY=              0.4384
 N-N= 2.321374283020D+02 E-N=-1.922438649355D+03  KE= 6.150162870107D+02

 Test job not archived.
 1\1\GINC-TERMINUS\FOpt\RB3LYP\6-31G(d)\C4H9Cl1\FRODOX\04-Jan-2018\0\\#
 B3LYP/6-31G* fopt test\\AsymmetricEnantiomers/r-2-chlorobutane_tmp.xyz
 \\0,1\C,0.6449234436,-0.1449698792,0.1023969317\C,1.2613559928,-1.4743
 067538,0.5184012237\H,1.6909833528,-1.9985569884,-0.3395887135\H,0.512
 0433814,-2.1247229601,0.9813518198\H,2.0603171249,-1.2937216915,1.2485
 788882\Cl,-0.6150567301,-0.46429431,-1.2064396465\H,1.3896000378,0.479
 8401761,-0.3996744559\C,0.0132916618,0.6219285859,1.2641619091\H,-0.79
 57314788,0.0147619875,1.6897653343\C,-0.4980020501,2.020871535,0.91409
 57628\H,0.7874323215,0.6996138794,2.0419015362\H,-1.2967679079,1.97502
 86121,0.1679895111\H,0.3063053883,2.64744573,0.509448027\H,-0.89361623
 81,2.520226277,1.8051858719\\Version=EM64L-G09RevB.01\State=1-A\HF=-61
 8.0570819\RMSD=2.451e-09\RMSF=2.908e-05\Dipole=0.5720585,0.1547828,0.6
 97695\Quadrupole=0.6620283,0.2362287,-0.8982569,-0.4831436,-0.5773882,
 -0.4079269\PG=C01 [X(C4H9Cl1)]\\@


 SIC AS THE CAWSE OF EWERY THING IS, SIC WILBE THE EFFECT.
 -- PROVERBS AND REASONS OF THE YEAR 1585
           AS REPRINTED IN PAISLEY MAGAZINE 1828.
 Job cpu time:  0 days  0 hours  1 minutes 28.6 seconds.
 File lengths (MBytes):  RWF=      9 Int=      0 D2E=      0 Chk=      2 Scr=      1
 Normal termination of Gaussian 09 at Thu Jan  4 15:08:44 2018.
