 Entering Gaussian System, Link 0=g09
 Input=Porphin.inp
 Output=Porphin.log
 Initial command:
 /usr/local/g09/l1.exe /home/g09scr/Gau-5700.inp -scrdir=/home/g09scr/
 Entering Link 1 = /usr/local/g09/l1.exe PID=      5702.
  
 Copyright (c) 1988,1990,1992,1993,1995,1998,2003,2009,2010,
            Gaussian, Inc.  All Rights Reserved.
  
 This is part of the Gaussian(R) 09 program.  It is based on
 the Gaussian(R) 03 system (copyright 2003, Gaussian, Inc.),
 the Gaussian(R) 98 system (copyright 1998, Gaussian, Inc.),
 the Gaussian(R) 94 system (copyright 1995, Gaussian, Inc.),
 the Gaussian 92(TM) system (copyright 1992, Gaussian, Inc.),
 the Gaussian 90(TM) system (copyright 1990, Gaussian, Inc.),
 the Gaussian 88(TM) system (copyright 1988, Gaussian, Inc.),
 the Gaussian 86(TM) system (copyright 1986, Carnegie Mellon
 University), and the Gaussian 82(TM) system (copyright 1983,
 Carnegie Mellon University). Gaussian is a federally registered
 trademark of Gaussian, Inc.
  
 This software contains proprietary and confidential information,
 including trade secrets, belonging to Gaussian, Inc.
  
 This software is provided under written license and may be
 used, copied, transmitted, or stored only in accord with that
 written license.
  
 The following legend is applicable only to US Government
 contracts under FAR:
  
                    RESTRICTED RIGHTS LEGEND
  
 Use, reproduction and disclosure by the US Government is
 subject to restrictions as set forth in subparagraphs (a)
 and (c) of the Commercial Computer Software - Restricted
 Rights clause in FAR 52.227-19.
  
 Gaussian, Inc.
 340 Quinnipiac St., Bldg. 40, Wallingford CT 06492
  
  
 ---------------------------------------------------------------
 Warning -- This program may not be used in any manner that
 competes with the business of Gaussian, Inc. or will provide
 assistance to any competitor of Gaussian, Inc.  The licensee
 of this program is prohibited from giving any competitor of
 Gaussian, Inc. access to this program.  By using this program,
 the user acknowledges that Gaussian, Inc. is engaged in the
 business of creating and licensing software in the field of
 computational chemistry and represents and warrants to the
 licensee that it is not a competitor of Gaussian, Inc. and that
 it will not use this program in any manner prohibited above.
 ---------------------------------------------------------------
  

 Cite this work as:
 Gaussian 09, Revision B.01,
 M. J. Frisch, G. W. Trucks, H. B. Schlegel, G. E. Scuseria, 
 M. A. Robb, J. R. Cheeseman, G. Scalmani, V. Barone, B. Mennucci, 
 G. A. Petersson, H. Nakatsuji, M. Caricato, X. Li, H. P. Hratchian, 
 A. F. Izmaylov, J. Bloino, G. Zheng, J. L. Sonnenberg, M. Hada, 
 M. Ehara, K. Toyota, R. Fukuda, J. Hasegawa, M. Ishida, T. Nakajima, 
 Y. Honda, O. Kitao, H. Nakai, T. Vreven, J. A. Montgomery, Jr., 
 J. E. Peralta, F. Ogliaro, M. Bearpark, J. J. Heyd, E. Brothers, 
 K. N. Kudin, V. N. Staroverov, T. Keith, R. Kobayashi, J. Normand, 
 K. Raghavachari, A. Rendell, J. C. Burant, S. S. Iyengar, J. Tomasi, 
 M. Cossi, N. Rega, J. M. Millam, M. Klene, J. E. Knox, J. B. Cross, 
 V. Bakken, C. Adamo, J. Jaramillo, R. Gomperts, R. E. Stratmann, 
 O. Yazyev, A. J. Austin, R. Cammi, C. Pomelli, J. W. Ochterski, 
 R. L. Martin, K. Morokuma, V. G. Zakrzewski, G. A. Voth, 
 P. Salvador, J. J. Dannenberg, S. Dapprich, A. D. Daniels, 
 O. Farkas, J. B. Foresman, J. V. Ortiz, J. Cioslowski, 
 and D. J. Fox, Gaussian, Inc., Wallingford CT, 2010.
 
 ******************************************
 Gaussian 09:  EM64L-G09RevB.01 12-Aug-2010
                22-Jan-2018 
 ******************************************
 %nproc=4
 Will use up to    4 processors via shared memory.
 %mem=60gb
 ----------------------------
 #B3LYP/6-31G* fopt test freq
 ----------------------------
 1/14=-1,18=20,19=15,26=3,38=1/1,3;
 2/9=110,12=2,14=103,17=6,18=5,40=1/2;
 3/5=1,6=6,7=1,11=2,16=1,25=1,30=1,71=1,74=-5/1,2,3;
 4//1;
 5/5=2,38=5/2;
 6/7=2,8=2,9=2,10=2,28=1/1;
 7//1,2,3,16;
 1/14=-1,18=20,19=15/3(2);
 2/9=110/2;
 99//99;
 2/9=110/2;
 3/5=1,6=6,7=1,11=2,16=1,25=1,30=1,71=1,74=-5/1,2,3;
 4/5=5,16=3/1;
 5/5=2,38=5/2;
 7//1,2,3,16;
 1/14=-1,18=20,19=15/3(-5);
 2/9=110/2;
 6/7=2,8=2,9=2,10=2,19=2,28=1/1;
 99/9=1/99;
 --------------------------------
 RotationSameMolecule/Porphin.xyz
 --------------------------------
 Symbolic Z-matrix:
 Charge =  0 Multiplicity = 1
 C                     0.68555  -4.21291   0. 
 C                    -0.68555  -4.21291   0. 
 C                    -1.08424  -2.84937   0. 
 C                     1.08424  -2.84937   0. 
 N                     0.       -2.04179   0. 
 C                     2.42854  -2.42854   0. 
 C                     2.84937  -1.08424   0. 
 N                     2.04179   0.        0. 
 C                     2.84937   1.08424   0. 
 C                     4.21291  -0.68555   0. 
 C                     4.21291   0.68555   0. 
 C                     2.42854   2.42854   0. 
 C                     1.08424   2.84937   0. 
 N                     0.        2.04179   0. 
 C                    -0.68555   4.21291   0. 
 C                     0.68555   4.21291   0. 
 C                    -2.84937   1.08424   0. 
 N                    -2.04179   0.        0. 
 C                    -2.84937  -1.08424   0. 
 C                    -4.21291  -0.68555   0. 
 C                    -4.21291   0.68555   0. 
 C                    -2.42854  -2.42854   0. 
 C                    -2.42854   2.42854   0. 
 C                    -1.08424   2.84937   0. 
 H                     1.32536  -5.08566   0. 
 H                    -1.32536  -5.08566   0. 
 H                     3.19712  -3.19712   0. 
 H                     5.08566  -1.32536   0. 
 H                     5.08566   1.32536   0. 
 H                     3.19712   3.19712   0. 
 H                    -1.32536   5.08566   0. 
 H                     1.32536   5.08566   0. 
 H                    -5.08566  -1.32536   0. 
 H                    -5.08566   1.32536   0. 
 H                    -3.19712  -3.19712   0. 
 H                    -3.19712   3.19712   0. 
 

 GradGradGradGradGradGradGradGradGradGradGradGradGradGradGradGradGradGrad
 Berny optimization.
 Initialization pass.
                           ----------------------------
                           !    Initial Parameters    !
                           ! (Angstroms and Degrees)  !
 --------------------------                            --------------------------
 ! Name  Definition              Value          Derivative Info.                !
 --------------------------------------------------------------------------------
 ! R1    R(1,2)                  1.3711         estimate D2E/DX2                !
 ! R2    R(1,4)                  1.4206         estimate D2E/DX2                !
 ! R3    R(1,25)                 1.0822         estimate D2E/DX2                !
 ! R4    R(2,3)                  1.4206         estimate D2E/DX2                !
 ! R5    R(2,26)                 1.0822         estimate D2E/DX2                !
 ! R6    R(3,5)                  1.3519         estimate D2E/DX2                !
 ! R7    R(3,22)                 1.4086         estimate D2E/DX2                !
 ! R8    R(4,5)                  1.3519         estimate D2E/DX2                !
 ! R9    R(4,6)                  1.4086         estimate D2E/DX2                !
 ! R10   R(6,7)                  1.4086         estimate D2E/DX2                !
 ! R11   R(6,27)                 1.0869         estimate D2E/DX2                !
 ! R12   R(7,8)                  1.3519         estimate D2E/DX2                !
 ! R13   R(7,10)                 1.4206         estimate D2E/DX2                !
 ! R14   R(8,9)                  1.3519         estimate D2E/DX2                !
 ! R15   R(9,11)                 1.4206         estimate D2E/DX2                !
 ! R16   R(9,12)                 1.4086         estimate D2E/DX2                !
 ! R17   R(10,11)                1.3711         estimate D2E/DX2                !
 ! R18   R(10,28)                1.0822         estimate D2E/DX2                !
 ! R19   R(11,29)                1.0822         estimate D2E/DX2                !
 ! R20   R(12,13)                1.4086         estimate D2E/DX2                !
 ! R21   R(12,30)                1.0869         estimate D2E/DX2                !
 ! R22   R(13,14)                1.3519         estimate D2E/DX2                !
 ! R23   R(13,16)                1.4206         estimate D2E/DX2                !
 ! R24   R(14,24)                1.3519         estimate D2E/DX2                !
 ! R25   R(15,16)                1.3711         estimate D2E/DX2                !
 ! R26   R(15,24)                1.4206         estimate D2E/DX2                !
 ! R27   R(15,31)                1.0822         estimate D2E/DX2                !
 ! R28   R(16,32)                1.0822         estimate D2E/DX2                !
 ! R29   R(17,18)                1.3519         estimate D2E/DX2                !
 ! R30   R(17,21)                1.4206         estimate D2E/DX2                !
 ! R31   R(17,23)                1.4086         estimate D2E/DX2                !
 ! R32   R(18,19)                1.3519         estimate D2E/DX2                !
 ! R33   R(19,20)                1.4206         estimate D2E/DX2                !
 ! R34   R(19,22)                1.4086         estimate D2E/DX2                !
 ! R35   R(20,21)                1.3711         estimate D2E/DX2                !
 ! R36   R(20,33)                1.0822         estimate D2E/DX2                !
 ! R37   R(21,34)                1.0822         estimate D2E/DX2                !
 ! R38   R(22,35)                1.0869         estimate D2E/DX2                !
 ! R39   R(23,24)                1.4086         estimate D2E/DX2                !
 ! R40   R(23,36)                1.0869         estimate D2E/DX2                !
 ! A1    A(2,1,4)              106.2986         estimate D2E/DX2                !
 ! A2    A(2,1,25)             126.245          estimate D2E/DX2                !
 ! A3    A(4,1,25)             127.4564         estimate D2E/DX2                !
 ! A4    A(1,2,3)              106.2986         estimate D2E/DX2                !
 ! A5    A(1,2,26)             126.245          estimate D2E/DX2                !
 ! A6    A(3,2,26)             127.4564         estimate D2E/DX2                !
 ! A7    A(2,3,5)              110.3815         estimate D2E/DX2                !
 ! A8    A(2,3,22)             123.6812         estimate D2E/DX2                !
 ! A9    A(5,3,22)             125.9374         estimate D2E/DX2                !
 ! A10   A(1,4,5)              110.3815         estimate D2E/DX2                !
 ! A11   A(1,4,6)              123.6812         estimate D2E/DX2                !
 ! A12   A(5,4,6)              125.9374         estimate D2E/DX2                !
 ! A13   A(3,5,4)              106.6399         estimate D2E/DX2                !
 ! A14   A(4,6,7)              124.7652         estimate D2E/DX2                !
 ! A15   A(4,6,27)             117.6174         estimate D2E/DX2                !
 ! A16   A(7,6,27)             117.6174         estimate D2E/DX2                !
 ! A17   A(6,7,8)              125.9374         estimate D2E/DX2                !
 ! A18   A(6,7,10)             123.6812         estimate D2E/DX2                !
 ! A19   A(8,7,10)             110.3815         estimate D2E/DX2                !
 ! A20   A(7,8,9)              106.6399         estimate D2E/DX2                !
 ! A21   A(8,9,11)             110.3815         estimate D2E/DX2                !
 ! A22   A(8,9,12)             125.9374         estimate D2E/DX2                !
 ! A23   A(11,9,12)            123.6812         estimate D2E/DX2                !
 ! A24   A(7,10,11)            106.2986         estimate D2E/DX2                !
 ! A25   A(7,10,28)            127.4564         estimate D2E/DX2                !
 ! A26   A(11,10,28)           126.245          estimate D2E/DX2                !
 ! A27   A(9,11,10)            106.2986         estimate D2E/DX2                !
 ! A28   A(9,11,29)            127.4564         estimate D2E/DX2                !
 ! A29   A(10,11,29)           126.245          estimate D2E/DX2                !
 ! A30   A(9,12,13)            124.7652         estimate D2E/DX2                !
 ! A31   A(9,12,30)            117.6174         estimate D2E/DX2                !
 ! A32   A(13,12,30)           117.6174         estimate D2E/DX2                !
 ! A33   A(12,13,14)           125.9374         estimate D2E/DX2                !
 ! A34   A(12,13,16)           123.6812         estimate D2E/DX2                !
 ! A35   A(14,13,16)           110.3815         estimate D2E/DX2                !
 ! A36   A(13,14,24)           106.6399         estimate D2E/DX2                !
 ! A37   A(16,15,24)           106.2986         estimate D2E/DX2                !
 ! A38   A(16,15,31)           126.245          estimate D2E/DX2                !
 ! A39   A(24,15,31)           127.4564         estimate D2E/DX2                !
 ! A40   A(13,16,15)           106.2986         estimate D2E/DX2                !
 ! A41   A(13,16,32)           127.4564         estimate D2E/DX2                !
 ! A42   A(15,16,32)           126.245          estimate D2E/DX2                !
 ! A43   A(18,17,21)           110.3815         estimate D2E/DX2                !
 ! A44   A(18,17,23)           125.9374         estimate D2E/DX2                !
 ! A45   A(21,17,23)           123.6812         estimate D2E/DX2                !
 ! A46   A(17,18,19)           106.6399         estimate D2E/DX2                !
 ! A47   A(18,19,20)           110.3815         estimate D2E/DX2                !
 ! A48   A(18,19,22)           125.9374         estimate D2E/DX2                !
 ! A49   A(20,19,22)           123.6812         estimate D2E/DX2                !
 ! A50   A(19,20,21)           106.2986         estimate D2E/DX2                !
 ! A51   A(19,20,33)           127.4564         estimate D2E/DX2                !
 ! A52   A(21,20,33)           126.245          estimate D2E/DX2                !
 ! A53   A(17,21,20)           106.2986         estimate D2E/DX2                !
 ! A54   A(17,21,34)           127.4564         estimate D2E/DX2                !
 ! A55   A(20,21,34)           126.245          estimate D2E/DX2                !
 ! A56   A(3,22,19)            124.7652         estimate D2E/DX2                !
 ! A57   A(3,22,35)            117.6174         estimate D2E/DX2                !
 ! A58   A(19,22,35)           117.6174         estimate D2E/DX2                !
 ! A59   A(17,23,24)           124.7652         estimate D2E/DX2                !
 ! A60   A(17,23,36)           117.6174         estimate D2E/DX2                !
 ! A61   A(24,23,36)           117.6174         estimate D2E/DX2                !
 ! A62   A(14,24,15)           110.3815         estimate D2E/DX2                !
 ! A63   A(14,24,23)           125.9374         estimate D2E/DX2                !
 ! A64   A(15,24,23)           123.6812         estimate D2E/DX2                !
 ! D1    D(4,1,2,3)              0.0            estimate D2E/DX2                !
 ! D2    D(4,1,2,26)           180.0            estimate D2E/DX2                !
 ! D3    D(25,1,2,3)           180.0            estimate D2E/DX2                !
 ! D4    D(25,1,2,26)            0.0            estimate D2E/DX2                !
 ! D5    D(2,1,4,5)              0.0            estimate D2E/DX2                !
 ! D6    D(2,1,4,6)            180.0            estimate D2E/DX2                !
 ! D7    D(25,1,4,5)           180.0            estimate D2E/DX2                !
 ! D8    D(25,1,4,6)             0.0            estimate D2E/DX2                !
 ! D9    D(1,2,3,5)              0.0            estimate D2E/DX2                !
 ! D10   D(1,2,3,22)           180.0            estimate D2E/DX2                !
 ! D11   D(26,2,3,5)           180.0            estimate D2E/DX2                !
 ! D12   D(26,2,3,22)            0.0            estimate D2E/DX2                !
 ! D13   D(2,3,5,4)              0.0            estimate D2E/DX2                !
 ! D14   D(22,3,5,4)           180.0            estimate D2E/DX2                !
 ! D15   D(2,3,22,19)          180.0            estimate D2E/DX2                !
 ! D16   D(2,3,22,35)            0.0            estimate D2E/DX2                !
 ! D17   D(5,3,22,19)            0.0            estimate D2E/DX2                !
 ! D18   D(5,3,22,35)          180.0            estimate D2E/DX2                !
 ! D19   D(1,4,5,3)              0.0            estimate D2E/DX2                !
 ! D20   D(6,4,5,3)            180.0            estimate D2E/DX2                !
 ! D21   D(1,4,6,7)            180.0            estimate D2E/DX2                !
 ! D22   D(1,4,6,27)             0.0            estimate D2E/DX2                !
 ! D23   D(5,4,6,7)              0.0            estimate D2E/DX2                !
 ! D24   D(5,4,6,27)           180.0            estimate D2E/DX2                !
 ! D25   D(4,6,7,8)              0.0            estimate D2E/DX2                !
 ! D26   D(4,6,7,10)           180.0            estimate D2E/DX2                !
 ! D27   D(27,6,7,8)           180.0            estimate D2E/DX2                !
 ! D28   D(27,6,7,10)            0.0            estimate D2E/DX2                !
 ! D29   D(6,7,8,9)            180.0            estimate D2E/DX2                !
 ! D30   D(10,7,8,9)             0.0            estimate D2E/DX2                !
 ! D31   D(6,7,10,11)          180.0            estimate D2E/DX2                !
 ! D32   D(6,7,10,28)            0.0            estimate D2E/DX2                !
 ! D33   D(8,7,10,11)            0.0            estimate D2E/DX2                !
 ! D34   D(8,7,10,28)          180.0            estimate D2E/DX2                !
 ! D35   D(7,8,9,11)             0.0            estimate D2E/DX2                !
 ! D36   D(7,8,9,12)           180.0            estimate D2E/DX2                !
 ! D37   D(8,9,11,10)            0.0            estimate D2E/DX2                !
 ! D38   D(8,9,11,29)          180.0            estimate D2E/DX2                !
 ! D39   D(12,9,11,10)         180.0            estimate D2E/DX2                !
 ! D40   D(12,9,11,29)           0.0            estimate D2E/DX2                !
 ! D41   D(8,9,12,13)            0.0            estimate D2E/DX2                !
 ! D42   D(8,9,12,30)          180.0            estimate D2E/DX2                !
 ! D43   D(11,9,12,13)         180.0            estimate D2E/DX2                !
 ! D44   D(11,9,12,30)           0.0            estimate D2E/DX2                !
 ! D45   D(7,10,11,9)            0.0            estimate D2E/DX2                !
 ! D46   D(7,10,11,29)         180.0            estimate D2E/DX2                !
 ! D47   D(28,10,11,9)         180.0            estimate D2E/DX2                !
 ! D48   D(28,10,11,29)          0.0            estimate D2E/DX2                !
 ! D49   D(9,12,13,14)           0.0            estimate D2E/DX2                !
 ! D50   D(9,12,13,16)         180.0            estimate D2E/DX2                !
 ! D51   D(30,12,13,14)        180.0            estimate D2E/DX2                !
 ! D52   D(30,12,13,16)          0.0            estimate D2E/DX2                !
 ! D53   D(12,13,14,24)        180.0            estimate D2E/DX2                !
 ! D54   D(16,13,14,24)          0.0            estimate D2E/DX2                !
 ! D55   D(12,13,16,15)        180.0            estimate D2E/DX2                !
 ! D56   D(12,13,16,32)          0.0            estimate D2E/DX2                !
 ! D57   D(14,13,16,15)          0.0            estimate D2E/DX2                !
 ! D58   D(14,13,16,32)        180.0            estimate D2E/DX2                !
 ! D59   D(13,14,24,15)          0.0            estimate D2E/DX2                !
 ! D60   D(13,14,24,23)        180.0            estimate D2E/DX2                !
 ! D61   D(24,15,16,13)          0.0            estimate D2E/DX2                !
 ! D62   D(24,15,16,32)        180.0            estimate D2E/DX2                !
 ! D63   D(31,15,16,13)        180.0            estimate D2E/DX2                !
 ! D64   D(31,15,16,32)          0.0            estimate D2E/DX2                !
 ! D65   D(16,15,24,14)          0.0            estimate D2E/DX2                !
 ! D66   D(16,15,24,23)        180.0            estimate D2E/DX2                !
 ! D67   D(31,15,24,14)        180.0            estimate D2E/DX2                !
 ! D68   D(31,15,24,23)          0.0            estimate D2E/DX2                !
 ! D69   D(21,17,18,19)          0.0            estimate D2E/DX2                !
 ! D70   D(23,17,18,19)        180.0            estimate D2E/DX2                !
 ! D71   D(18,17,21,20)          0.0            estimate D2E/DX2                !
 ! D72   D(18,17,21,34)        180.0            estimate D2E/DX2                !
 ! D73   D(23,17,21,20)        180.0            estimate D2E/DX2                !
 ! D74   D(23,17,21,34)          0.0            estimate D2E/DX2                !
 ! D75   D(18,17,23,24)          0.0            estimate D2E/DX2                !
 ! D76   D(18,17,23,36)        180.0            estimate D2E/DX2                !
 ! D77   D(21,17,23,24)        180.0            estimate D2E/DX2                !
 ! D78   D(21,17,23,36)          0.0            estimate D2E/DX2                !
 ! D79   D(17,18,19,20)          0.0            estimate D2E/DX2                !
 ! D80   D(17,18,19,22)        180.0            estimate D2E/DX2                !
 ! D81   D(18,19,20,21)          0.0            estimate D2E/DX2                !
 ! D82   D(18,19,20,33)        180.0            estimate D2E/DX2                !
 ! D83   D(22,19,20,21)        180.0            estimate D2E/DX2                !
 ! D84   D(22,19,20,33)          0.0            estimate D2E/DX2                !
 ! D85   D(18,19,22,3)           0.0            estimate D2E/DX2                !
 ! D86   D(18,19,22,35)        180.0            estimate D2E/DX2                !
 ! D87   D(20,19,22,3)         180.0            estimate D2E/DX2                !
 ! D88   D(20,19,22,35)          0.0            estimate D2E/DX2                !
 ! D89   D(19,20,21,17)          0.0            estimate D2E/DX2                !
 ! D90   D(19,20,21,34)        180.0            estimate D2E/DX2                !
 ! D91   D(33,20,21,17)        180.0            estimate D2E/DX2                !
 ! D92   D(33,20,21,34)          0.0            estimate D2E/DX2                !
 ! D93   D(17,23,24,14)          0.0            estimate D2E/DX2                !
 ! D94   D(17,23,24,15)        180.0            estimate D2E/DX2                !
 ! D95   D(36,23,24,14)        180.0            estimate D2E/DX2                !
 ! D96   D(36,23,24,15)          0.0            estimate D2E/DX2                !
 --------------------------------------------------------------------------------
 Trust Radius=3.00D-01 FncErr=1.00D-07 GrdErr=1.00D-06
 Number of steps in this run=    210 maximum allowed number of steps=    216.
 GradGradGradGradGradGradGradGradGradGradGradGradGradGradGradGradGradGrad

                          Input orientation:                          
 ---------------------------------------------------------------------
 Center     Atomic      Atomic             Coordinates (Angstroms)
 Number     Number       Type             X           Y           Z
 ---------------------------------------------------------------------
      1          6           0        0.685550   -4.212910    0.000000
      2          6           0       -0.685550   -4.212910    0.000000
      3          6           0       -1.084240   -2.849370    0.000000
      4          6           0        1.084240   -2.849370    0.000000
      5          7           0        0.000000   -2.041790    0.000000
      6          6           0        2.428540   -2.428540    0.000000
      7          6           0        2.849370   -1.084240    0.000000
      8          7           0        2.041790    0.000000    0.000000
      9          6           0        2.849370    1.084240    0.000000
     10          6           0        4.212910   -0.685550    0.000000
     11          6           0        4.212910    0.685550    0.000000
     12          6           0        2.428540    2.428540    0.000000
     13          6           0        1.084240    2.849370    0.000000
     14          7           0        0.000000    2.041790    0.000000
     15          6           0       -0.685550    4.212910    0.000000
     16          6           0        0.685550    4.212910    0.000000
     17          6           0       -2.849370    1.084240    0.000000
     18          7           0       -2.041790    0.000000    0.000000
     19          6           0       -2.849370   -1.084240    0.000000
     20          6           0       -4.212910   -0.685550    0.000000
     21          6           0       -4.212910    0.685550    0.000000
     22          6           0       -2.428540   -2.428540    0.000000
     23          6           0       -2.428540    2.428540    0.000000
     24          6           0       -1.084240    2.849370    0.000000
     25          1           0        1.325360   -5.085660    0.000000
     26          1           0       -1.325360   -5.085660    0.000000
     27          1           0        3.197120   -3.197120    0.000000
     28          1           0        5.085660   -1.325360    0.000000
     29          1           0        5.085660    1.325360    0.000000
     30          1           0        3.197120    3.197120    0.000000
     31          1           0       -1.325360    5.085660    0.000000
     32          1           0        1.325360    5.085660    0.000000
     33          1           0       -5.085660   -1.325360    0.000000
     34          1           0       -5.085660    1.325360    0.000000
     35          1           0       -3.197120   -3.197120    0.000000
     36          1           0       -3.197120    3.197120    0.000000
 ---------------------------------------------------------------------
                    Distance matrix (angstroms):
                    1          2          3          4          5
     1  C    0.000000
     2  C    1.371100   0.000000
     3  C    2.234144   1.420632   0.000000
     4  C    1.420632   2.234144   2.168480   0.000000
     5  N    2.276783   2.276783   1.351947   1.351947   0.000000
     6  C    2.494392   3.589085   3.537898   1.408631   2.459143
     7  C    3.804036   4.720618   4.311493   2.496271   3.005963
     8  N    4.425833   5.018665   4.229772   3.005963   2.887527
     9  C    5.722055   6.368317   5.562965   4.311493   4.229772
    10  C    4.988440   6.036322   5.722055   3.804036   4.425833
    11  C    6.036322   6.927469   6.368317   4.720618   5.018665
    12  C    6.866358   7.335286   6.340028   5.446419   5.087402
    13  C    7.073525   7.280656   6.097372   5.698740   5.009892
    14  N    6.292158   6.292158   5.009892   5.009892   4.083580
    15  C    8.536648   8.425820   7.073525   7.280656   6.292158
    16  C    8.425820   8.536648   7.280656   7.073525   6.292158
    17  C    6.368317   5.722055   4.311493   5.562965   4.229772
    18  N    5.018665   4.425833   3.005963   4.229772   2.887527
    19  C    4.720618   3.804036   2.496271   4.311493   3.005963
    20  C    6.036322   4.988440   3.804036   5.722055   4.425833
    21  C    6.927469   6.036322   4.720618   6.368317   5.018665
    22  C    3.589085   2.494392   1.408631   3.537898   2.459143
    23  C    7.335286   6.866358   5.446419   6.340028   5.087402
    24  C    7.280656   7.073525   5.698740   6.097372   5.009892
    25  H    1.082150   2.192134   3.287425   2.249251   3.319898
    26  H    2.192134   1.082150   2.249251   3.287425   3.319898
    27  H    2.709209   4.013347   4.295460   2.141306   3.399465
    28  H    5.262976   6.453279   6.355334   4.281818   5.135875
    29  H    7.073429   7.998706   7.449566   5.782710   6.099314
    30  H    7.824099   8.365624   7.408784   6.405022   6.137406
    31  H    9.513525   9.320556   7.938693   8.292821   7.249629
    32  H    9.320556   9.513525   8.292821   7.938693   7.249629
    33  H    6.453279   5.262976   4.281818   6.355334   5.135875
    34  H    7.998706   7.073429   5.782710   7.449566   6.099314
    35  H    4.013347   2.709209   2.141306   4.295460   3.399465
    36  H    8.365624   7.824099   6.405022   7.408784   6.137406
                    6          7          8          9         10
     6  C    0.000000
     7  C    1.408631   0.000000
     8  N    2.459143   1.351947   0.000000
     9  C    3.537898   2.168480   1.351947   0.000000
    10  C    2.494392   1.420632   2.276783   2.234144   0.000000
    11  C    3.589085   2.234144   2.276783   1.420632   1.371100
    12  C    4.857080   3.537898   2.459143   1.408631   3.589085
    13  C    5.446419   4.311493   3.005963   2.496271   4.720618
    14  N    5.087402   4.229772   2.887527   3.005963   5.018665
    15  C    7.335286   6.368317   5.018665   4.720618   6.927469
    16  C    6.866358   5.722055   4.425833   3.804036   6.036322
    17  C    6.340028   6.097372   5.009892   5.698740   7.280656
    18  N    5.087402   5.009892   4.083580   5.009892   6.292158
    19  C    5.446419   5.698740   5.009892   6.097372   7.073525
    20  C    6.866358   7.073525   6.292158   7.280656   8.425820
    21  C    7.335286   7.280656   6.292158   7.073525   8.536648
    22  C    4.857080   5.446419   5.087402   6.340028   6.866358
    23  C    6.868948   6.340028   5.087402   5.446419   7.335286
    24  C    6.340028   5.562965   4.229772   4.311493   6.368317
    25  H    2.877028   4.281818   5.135875   6.355334   5.262976
    26  H    4.599136   5.782710   6.099314   7.449566   7.073429
    27  H    1.086936   2.141306   3.399465   4.295460   2.709209
    28  H    2.877028   2.249251   3.319898   3.287425   1.082150
    29  H    4.599136   3.287425   3.319898   2.249251   2.192134
    30  H    5.677919   4.295460   3.399465   2.141306   4.013347
    31  H    8.399700   7.449566   6.099314   5.782710   7.998706
    32  H    7.594749   6.355334   5.135875   4.281818   6.453279
    33  H    7.594749   7.938693   7.249629   8.292821   9.320556
    34  H    8.399700   8.292821   7.249629   7.938693   9.513525
    35  H    5.677919   6.405022   6.137406   7.408784   7.824099
    36  H    7.955885   7.408784   6.137406   6.405022   8.365624
                   11         12         13         14         15
    11  C    0.000000
    12  C    2.494392   0.000000
    13  C    3.804036   1.408631   0.000000
    14  N    4.425833   2.459143   1.351947   0.000000
    15  C    6.036322   3.589085   2.234144   2.276783   0.000000
    16  C    4.988440   2.494392   1.420632   2.276783   1.371100
    17  C    7.073525   5.446419   4.311493   3.005963   3.804036
    18  N    6.292158   5.087402   4.229772   2.887527   4.425833
    19  C    7.280656   6.340028   5.562965   4.229772   5.722055
    20  C    8.536648   7.335286   6.368317   5.018665   6.036322
    21  C    8.425820   6.866358   5.722055   4.425833   4.988440
    22  C    7.335286   6.868948   6.340028   5.087402   6.866358
    23  C    6.866358   4.857080   3.537898   2.459143   2.494392
    24  C    5.722055   3.537898   2.168480   1.351947   1.420632
    25  H    6.453279   7.594749   7.938693   7.249629   9.513525
    26  H    7.998706   8.399700   8.292821   7.249629   9.320556
    27  H    4.013347   5.677919   6.405022   6.137406   8.365624
    28  H    2.192134   4.599136   5.782710   6.099314   7.998706
    29  H    1.082150   2.877028   4.281818   5.135875   6.453279
    30  H    2.709209   1.086936   2.141306   3.399465   4.013347
    31  H    7.073429   4.599136   3.287425   3.319898   1.082150
    32  H    5.262976   2.877028   2.249251   3.319898   2.192134
    33  H    9.513525   8.399700   7.449566   6.099314   7.073429
    34  H    9.320556   7.594749   6.355334   5.135875   5.262976
    35  H    8.365624   7.955885   7.408784   6.137406   7.824099
    36  H    7.824099   5.677919   4.295460   3.399465   2.709209
                   16         17         18         19         20
    16  C    0.000000
    17  C    4.720618   0.000000
    18  N    5.018665   1.351947   0.000000
    19  C    6.368317   2.168480   1.351947   0.000000
    20  C    6.927469   2.234144   2.276783   1.420632   0.000000
    21  C    6.036322   1.420632   2.276783   2.234144   1.371100
    22  C    7.335286   3.537898   2.459143   1.408631   2.494392
    23  C    3.589085   1.408631   2.459143   3.537898   3.589085
    24  C    2.234144   2.496271   3.005963   4.311493   4.720618
    25  H    9.320556   7.449566   6.099314   5.782710   7.073429
    26  H    9.513525   6.355334   5.135875   4.281818   5.262976
    27  H    7.824099   7.408784   6.137406   6.405022   7.824099
    28  H    7.073429   8.292821   7.249629   7.938693   9.320556
    29  H    5.262976   7.938693   7.249629   8.292821   9.513525
    30  H    2.709209   6.405022   6.137406   7.408784   8.365624
    31  H    2.192134   4.281818   5.135875   6.355334   6.453279
    32  H    1.082150   5.782710   6.099314   7.449566   7.998706
    33  H    7.998706   3.287425   3.319898   2.249251   1.082150
    34  H    6.453279   2.249251   3.319898   3.287425   2.192134
    35  H    8.365624   4.295460   3.399465   2.141306   2.709209
    36  H    4.013347   2.141306   3.399465   4.295460   4.013347
                   21         22         23         24         25
    21  C    0.000000
    22  C    3.589085   0.000000
    23  C    2.494392   4.857080   0.000000
    24  C    3.804036   5.446419   1.408631   0.000000
    25  H    7.998706   4.599136   8.399700   8.292821   0.000000
    26  H    6.453279   2.877028   7.594749   7.938693   2.650720
    27  H    8.365624   5.677919   7.955885   7.408784   2.658960
    28  H    9.513525   7.594749   8.399700   7.449566   5.317867
    29  H    9.320556   8.399700   7.594749   6.355334   7.432431
    30  H    7.824099   7.955885   5.677919   4.295460   8.491639
    31  H    5.262976   7.594749   2.877028   2.249251  10.511045
    32  H    7.073429   8.399700   4.599136   3.287425  10.171320
    33  H    2.192134   2.877028   4.599136   5.782710   7.432431
    34  H    1.082150   4.599136   2.877028   4.281818   9.066551
    35  H    4.013347   1.086936   5.677919   6.405022   4.900960
    36  H    2.709209   5.677919   1.086936   2.141306   9.437016
                   26         27         28         29         30
    26  H    0.000000
    27  H    4.900960   0.000000
    28  H    7.432431   2.658960   0.000000
    29  H    9.066551   4.900960   2.650720   0.000000
    30  H    9.437016   6.394240   4.900960   2.658960   0.000000
    31  H   10.171320   9.437016   9.066551   7.432431   4.900960
    32  H   10.511045   8.491639   7.432431   5.317867   2.658960
    33  H    5.317867   8.491639  10.171320  10.511045   9.437016
    34  H    7.432431   9.437016  10.511045  10.171320   8.491639
    35  H    2.658960   6.394240   8.491639   9.437016   9.042821
    36  H    8.491639   9.042821   9.437016   8.491639   6.394240
                   31         32         33         34         35
    31  H    0.000000
    32  H    2.650720   0.000000
    33  H    7.432431   9.066551   0.000000
    34  H    5.317867   7.432431   2.650720   0.000000
    35  H    8.491639   9.437016   2.658960   4.900960   0.000000
    36  H    2.658960   4.900960   4.900960   2.658960   6.394240
                   36
    36  H    0.000000
 Stoichiometry    C20H12N4
 Framework group  D4H[2C2'(N.N),2C2"(HC.CH),SGH(C16H8)]
 Deg. of freedom     9
 Full point group                 D4H     NOp  16
 Largest Abelian subgroup         D2H     NOp   8
 Largest concise Abelian subgroup D2      NOp   4
                         Standard orientation:                         
 ---------------------------------------------------------------------
 Center     Atomic      Atomic             Coordinates (Angstroms)
 Number     Number       Type             X           Y           Z
 ---------------------------------------------------------------------
      1          6           0        0.685550    4.212910    0.000000
      2          6           0       -0.685550    4.212910    0.000000
      3          6           0       -1.084240    2.849370    0.000000
      4          6           0        1.084240    2.849370    0.000000
      5          7           0        0.000000    2.041790    0.000000
      6          6           0        2.428540    2.428540    0.000000
      7          6           0        2.849370    1.084240    0.000000
      8          7           0        2.041790    0.000000    0.000000
      9          6           0        2.849370   -1.084240    0.000000
     10          6           0        4.212910    0.685550    0.000000
     11          6           0        4.212910   -0.685550    0.000000
     12          6           0        2.428540   -2.428540    0.000000
     13          6           0        1.084240   -2.849370    0.000000
     14          7           0        0.000000   -2.041790    0.000000
     15          6           0       -0.685550   -4.212910    0.000000
     16          6           0        0.685550   -4.212910    0.000000
     17          6           0       -2.849370   -1.084240    0.000000
     18          7           0       -2.041790    0.000000    0.000000
     19          6           0       -2.849370    1.084240    0.000000
     20          6           0       -4.212910    0.685550    0.000000
     21          6           0       -4.212910   -0.685550    0.000000
     22          6           0       -2.428540    2.428540    0.000000
     23          6           0       -2.428540   -2.428540    0.000000
     24          6           0       -1.084240   -2.849370    0.000000
     25          1           0        1.325360    5.085660    0.000000
     26          1           0       -1.325360    5.085660    0.000000
     27          1           0        3.197120    3.197120    0.000000
     28          1           0        5.085660    1.325360    0.000000
     29          1           0        5.085660   -1.325360    0.000000
     30          1           0        3.197120   -3.197120    0.000000
     31          1           0       -1.325360   -5.085660    0.000000
     32          1           0        1.325360   -5.085660    0.000000
     33          1           0       -5.085660    1.325360    0.000000
     34          1           0       -5.085660   -1.325360    0.000000
     35          1           0       -3.197120    3.197120    0.000000
     36          1           0       -3.197120   -3.197120    0.000000
 ---------------------------------------------------------------------
 Rotational constants (GHZ):      0.2698189      0.2698189      0.1349095
 Standard basis: 6-31G(d) (6D, 7F)
 There are    77 symmetry adapted basis functions of AG  symmetry.
 There are    67 symmetry adapted basis functions of B1G symmetry.
 There are    24 symmetry adapted basis functions of B2G symmetry.
 There are    24 symmetry adapted basis functions of B3G symmetry.
 There are    22 symmetry adapted basis functions of AU  symmetry.
 There are    26 symmetry adapted basis functions of B1U symmetry.
 There are    72 symmetry adapted basis functions of B2U symmetry.
 There are    72 symmetry adapted basis functions of B3U symmetry.
 Integral buffers will be    131072 words long.
 Raffenetti 2 integral format.
 Two-electron integral symmetry is turned on.
   384 basis functions,   720 primitive gaussians,   384 cartesian basis functions
    80 alpha electrons       80 beta electrons
       nuclear repulsion energy      1811.6932666511 Hartrees.
 NAtoms=   36 NActive=   36 NUniq=    6 SFac= 4.00D+00 NAtFMM=   50 NAOKFM=F Big=F
 One-electron integrals computed using PRISM.
 NBasis=   384 RedAO= T  NBF=    77    67    24    24    22    26    72    72
 NBsUse=   384 1.00D-06 NBFU=    77    67    24    24    22    26    72    72
 Harris functional with IExCor=  402 diagonalized for initial guess.
 ExpMin= 1.61D-01 ExpMax= 4.17D+03 ExpMxC= 6.27D+02 IAcc=1 IRadAn=         1 AccDes= 0.00D+00
 HarFok:  IExCor=  402 AccDes= 0.00D+00 IRadAn=         1 IDoV= 1
 ScaDFX=  1.000000  1.000000  1.000000  1.000000
 FoFCou: FMM=F IPFlag=           0 FMFlag=      100000 FMFlg1=           0
         NFxFlg=           0 DoJE=T BraDBF=F KetDBF=T FulRan=T
         Omega=  0.000000  0.000000  1.000000  0.000000  0.000000 ICntrl=     500 IOpCl=  0
         NMat0=    1 NMatS0=    1 NMatT0=    0 NMatD0=    1 NMtDS0=    0 NMtDT0=    0
         I1Cent=           4 NGrid=           0.
 Petite list used in FoFCou.
 Initial guess orbital symmetries:
       Occupied  (B1G) (EU) (EU) (A1G) (B1G) (EU) (EU) (A1G) (A2G)
                 (EU) (EU) (B2G) (EU) (EU) (B2G) (A1G) (A2G) (B1G)
                 (EU) (EU) (B2G) (EU) (EU) (A1G) (A1G) (EU) (EU)
                 (B1G) (B2G) (EU) (EU) (A1G) (EU) (EU) (B1G) (A1G)
                 (A2G) (EU) (EU) (B2G) (B1G) (EU) (EU) (B2G) (A2G)
                 (A1G) (EU) (EU) (B1G) (EU) (EU) (A1G) (A2G) (A1G)
                 (EU) (EU) (B2G) (A2U) (B1G) (EU) (EU) (EG) (EG)
                 (EU) (EU) (A2G) (B2G) (B2U) (B1U) (A1G) (EG) (EG)
                 (EU) (EU) (A2U) (B1G) (B2U) (EG) (EG) (A1U)
       Virtual   (A2U) (EG) (EG) (B1U) (B2U) (EG) (EG) (A1U) (B1U)
                 (A1G) (EG) (EG) (A2U) (EU) (EU) (B1G) (B2G) (EU)
                 (EU) (A1G) (A2G) (EU) (EU) (B2G) (B1G) (EU) (EU)
                 (B2G) (A2G) (A1G) (EU) (EU) (B1G) (EU) (EU) (A1G)
                 (B2G) (EU) (EU) (A2G) (A1G) (EU) (EU) (B2G) (EU)
                 (EU) (A2G) (B1G) (A2G) (B1G) (B2G) (A1G) (EU)
                 (EU) (A2U) (EG) (EG) (EU) (EU) (B1U) (B2U) (EU)
                 (EU) (A1G) (B1G) (EU) (EU) (A2G) (EG) (EG) (B2G)
                 (B2G) (A2U) (A1G) (EU) (EU) (EG) (EG) (A1U) (B1G)
                 (EU) (EU) (A1G) (B1U) (A2U) (B2U) (A1G) (EG) (EG)
                 (EG) (EG) (A2U) (B1G) (EU) (EU) (B2G) (A2G) (EU)
                 (EU) (B1U) (A1U) (A1G) (B2G) (EU) (EU) (A1G) (EU)
                 (EU) (B2G) (EG) (EG) (B2U) (A2G) (EU) (EU) (B1G)
                 (EU) (EU) (A2G) (A1G) (EU) (EU) (B2G) (A2G) (EU)
                 (EU) (B2G) (B1G) (A1G) (B1G) (EU) (EU) (EU) (EU)
                 (B2U) (A1G) (EU) (EU) (B1G) (A2G) (EG) (EG) (B2G)
                 (B1G) (A1U) (A2U) (A2G) (EU) (EU) (EG) (EG) (B1U)
                 (A2U) (EG) (EG) (B2U) (A1U) (B2G) (EU) (EU) (EG)
                 (EG) (B1U) (A1G) (B2U) (B2G) (EG) (EG) (EU) (EU)
                 (A2U) (A2G) (A1G) (B2G) (B1G) (EU) (EU) (EU) (EU)
                 (A1G) (B1G) (EU) (EU) (A2G) (A1G) (EU) (EU) (A2U)
                 (B2G) (B1G) (EG) (EG) (A2G) (B1G) (EU) (EU) (A1G)
                 (B1U) (EU) (EU) (B2U) (EU) (EU) (A1G) (B1G) (EG)
                 (EG) (A1U) (EU) (EU) (B2G) (A2G) (A1G) (B2U) (EG)
                 (EG) (B1U) (EU) (EU) (EG) (EG) (A1U) (A2U) (B1G)
                 (A1G) (A2G) (EU) (EU) (B2G) (EU) (EU) (B1U) (EG)
                 (EG) (B1G) (B2G) (EU) (EU) (A2U) (A1U) (A2G) (A1G)
                 (EG) (EG) (EU) (EU) (B1U) (B2G) (A1U) (EG) (EG)
                 (B2U) (B1G) (B2G) (EU) (EU) (B1G) (EU) (EU) (A2G)
                 (EU) (EU) (A1G) (A2G) (A1G) (B2G) (EU) (EU) (B2G)
                 (EU) (EU) (A2G) (EU) (EU) (B1G) (A2G) (A1G) (B2G)
                 (EU) (EU) (A1G) (EU) (EU) (B1G) (B2G) (EU) (EU)
                 (A1G) (A2G) (EU) (EU) (B2G) (B1G) (A1G) (EU) (EU)
                 (EU) (EU) (B1G) (A2G) (A1G) (B2G) (EU) (EU)
 The electronic state of the initial guess is 1-A1G.
 Requested convergence on RMS density matrix=1.00D-08 within 128 cycles.
 Requested convergence on MAX density matrix=1.00D-06.
 Requested convergence on             energy=1.00D-06.
 No special actions if energy rises.
 Keep R1 ints in memory in canonical form, NReq=2761429168.
 Integral accuracy reduced to 1.0D-05 until final iterations.
 Initial convergence to 1.0D-05 achieved.  Increase integral accuracy.
 SCF Done:  E(RB3LYP) =  -988.164579320     A.U. after   16 cycles
             Convg  =    0.8593D-09             -V/T =  2.0087

 **********************************************************************

            Population analysis using the SCF density.

 **********************************************************************

 Orbital symmetries:
       Occupied  (B1G) (EU) (EU) (A1G) (B2G) (EU) (EU) (A1G) (A2G)
                 (EU) (EU) (B1G) (B2G) (EU) (EU) (A1G) (B1G) (EU)
                 (EU) (A1G) (A2G) (EU) (EU) (B2G) (A1G) (EU) (EU)
                 (B1G) (B2G) (EU) (EU) (A1G) (EU) (EU) (B1G) (A1G)
                 (A2G) (EU) (EU) (B2G) (B1G) (B2G) (EU) (EU) (A2G)
                 (A1G) (EU) (EU) (EU) (EU) (B1G) (A1G) (A2G) (EU)
                 (EU) (A2U) (B2G) (A1G) (EG) (EG) (EU) (EU) (B2U)
                 (B2G) (B1G) (EU) (EU) (A2G) (B1U) (EG) (EG) (A1G)
                 (EU) (EU) (A2U) (EG) (EG) (B2U) (B1G) (A1U)
       Virtual   (A2U) (EG) (EG) (B1U) (B2U) (EG) (EG) (A1U) (A1G)
                 (EU) (EU) (B1U) (B2G) (B1G) (EU) (EU) (EG) (EG)
                 (A1G) (A2U) (A2G) (EU) (EU) (B2G) (B1G) (EU) (EU)
                 (A2G) (A1G) (B2G) (EU) (EU) (B1G) (A1G) (EU) (EU)
                 (B2G) (EU) (EU) (A1G) (EU) (EU) (A2G) (B1G) (B2G)
                 (EU) (EU) (A2G) (B2G) (A1G) (A2U) (B1G) (EG) (EG)
                 (EU) (EU) (B1U) (A2G) (EU) (EU) (B2U) (A1G) (EU)
                 (EU) (EG) (EG) (B1G) (B2G) (EU) (EU) (A2U) (EG)
                 (EG) (B2G) (A1U) (A2G) (A1G) (EU) (EU) (A2U) (B1U)
                 (A1G) (B2U) (B1G) (EU) (EU) (EG) (EG) (A1G) (EG)
                 (EG) (B1U) (A1U) (A2U) (EU) (EU) (B2G) (B1G) (EU)
                 (EU) (A1G) (A2G) (B2G) (A1G) (EU) (EU) (EU) (EU)
                 (B2G) (EG) (EG) (A2G) (B2U) (EU) (EU) (B1G) (EU)
                 (EU) (A2G) (A1G) (EU) (EU) (A2G) (B2G) (EU) (EU)
                 (B2G) (B1G) (A1G) (B1G) (EU) (EU) (EU) (EU) (A1G)
                 (B2U) (B1G) (B2G) (A2G) (EU) (EU) (EG) (EG) (A1U)
                 (A2U) (EU) (EU) (B1G) (A2G) (B1U) (B2G) (EG) (EG)
                 (EG) (EG) (A2U) (A1U) (EU) (EU) (B2U) (EG) (EG)
                 (B1U) (A1G) (B2G) (EU) (EU) (B2U) (A2G) (EG) (EG)
                 (A2U) (A1G) (B2G) (B1G) (EU) (EU) (EU) (EU) (A1G)
                 (B1G) (EU) (EU) (A2G) (A1G) (EU) (EU) (A2U) (B2G)
                 (EG) (EG) (B1G) (A2G) (B1U) (EU) (EU) (B1G) (B2U)
                 (EU) (EU) (A1G) (EU) (EU) (A1G) (EG) (EG) (B1G)
                 (A1U) (EU) (EU) (B2G) (A2G) (A1G) (B2U) (EG) (EG)
                 (EU) (EU) (B1U) (EG) (EG) (A2U) (A1U) (A1G) (A2G)
                 (B1G) (EU) (EU) (B2G) (EU) (EU) (B1U) (EG) (EG)
                 (B2G) (B1G) (EU) (EU) (A2U) (A1U) (A2G) (A1G)
                 (EG) (EG) (EU) (EU) (B1U) (B2G) (A1U) (EG) (EG)
                 (B2U) (B1G) (EU) (EU) (B1G) (B2G) (EU) (EU) (EU)
                 (EU) (A2G) (A1G) (A2G) (B2G) (A1G) (EU) (EU) (B2G)
                 (EU) (EU) (A2G) (EU) (EU) (B1G) (A2G) (A1G) (B2G)
                 (EU) (EU) (A1G) (EU) (EU) (B1G) (B2G) (EU) (EU)
                 (A1G) (A2G) (EU) (EU) (B2G) (A1G) (B1G) (EU) (EU)
                 (EU) (EU) (B1G) (A2G) (A1G) (B2G) (EU) (EU)
 The electronic state is 1-A1G.
 Alpha  occ. eigenvalues --  -14.30919 -14.30918 -14.30918 -14.30918 -10.23696
 Alpha  occ. eigenvalues --  -10.23696 -10.23696 -10.23696 -10.21257 -10.21257
 Alpha  occ. eigenvalues --  -10.21257 -10.21256 -10.21256 -10.21256 -10.21256
 Alpha  occ. eigenvalues --  -10.21255 -10.17825 -10.17825 -10.17825 -10.17825
 Alpha  occ. eigenvalues --  -10.17758 -10.17758 -10.17758 -10.17758  -0.95860
 Alpha  occ. eigenvalues --   -0.95128  -0.95128  -0.94252  -0.81993  -0.79420
 Alpha  occ. eigenvalues --   -0.79420  -0.75702  -0.75289  -0.75289  -0.74916
 Alpha  occ. eigenvalues --   -0.74905  -0.71541  -0.65762  -0.65762  -0.59181
 Alpha  occ. eigenvalues --   -0.57639  -0.57344  -0.56415  -0.56415  -0.53945
 Alpha  occ. eigenvalues --   -0.51844  -0.51239  -0.51239  -0.49802  -0.49802
 Alpha  occ. eigenvalues --   -0.49708  -0.46576  -0.43276  -0.42194  -0.42194
 Alpha  occ. eigenvalues --   -0.41864  -0.41110  -0.40850  -0.40503  -0.40503
 Alpha  occ. eigenvalues --   -0.39157  -0.39157  -0.38140  -0.38012  -0.36744
 Alpha  occ. eigenvalues --   -0.36604  -0.36604  -0.36529  -0.32648  -0.28019
 Alpha  occ. eigenvalues --   -0.28019  -0.27957  -0.24323  -0.24323  -0.24070
 Alpha  occ. eigenvalues --   -0.22704  -0.22704  -0.22586  -0.21291  -0.19480
 Alpha virt. eigenvalues --   -0.15797  -0.07861  -0.07861  -0.02707   0.07410
 Alpha virt. eigenvalues --    0.08008   0.08008   0.08853   0.09333   0.10643
 Alpha virt. eigenvalues --    0.10643   0.12206   0.12315   0.13804   0.14377
 Alpha virt. eigenvalues --    0.14377   0.14501   0.14501   0.15427   0.15535
 Alpha virt. eigenvalues --    0.16562   0.17595   0.17595   0.18237   0.22418
 Alpha virt. eigenvalues --    0.22487   0.22487   0.23489   0.25450   0.26186
 Alpha virt. eigenvalues --    0.26735   0.26735   0.28967   0.30935   0.31707
 Alpha virt. eigenvalues --    0.31707   0.35877   0.37422   0.37422   0.39957
 Alpha virt. eigenvalues --    0.39959   0.39959   0.41804   0.45089   0.45768
 Alpha virt. eigenvalues --    0.46793   0.46793   0.46939   0.50913   0.51312
 Alpha virt. eigenvalues --    0.51374   0.51394   0.52152   0.52152   0.52693
 Alpha virt. eigenvalues --    0.52693   0.53449   0.54103   0.55061   0.55061
 Alpha virt. eigenvalues --    0.55583   0.56882   0.58001   0.58001   0.58075
 Alpha virt. eigenvalues --    0.58075   0.58571   0.59837   0.59864   0.59864
 Alpha virt. eigenvalues --    0.60392   0.62476   0.62476   0.62976   0.63019
 Alpha virt. eigenvalues --    0.63096   0.64211   0.64366   0.64366   0.65202
 Alpha virt. eigenvalues --    0.66206   0.66581   0.67739   0.67863   0.68584
 Alpha virt. eigenvalues --    0.68584   0.71268   0.71268   0.72431   0.75578
 Alpha virt. eigenvalues --    0.75578   0.78723   0.79940   0.80524   0.80697
 Alpha virt. eigenvalues --    0.80697   0.80949   0.81222   0.82854   0.82854
 Alpha virt. eigenvalues --    0.82985   0.83704   0.83810   0.84080   0.84489
 Alpha virt. eigenvalues --    0.84489   0.86356   0.86356   0.88628   0.89909
 Alpha virt. eigenvalues --    0.89909   0.91288   0.93577   0.93680   0.93680
 Alpha virt. eigenvalues --    0.94657   0.95895   0.95895   0.96453   0.96685
 Alpha virt. eigenvalues --    0.98949   0.98949   1.00364   1.02059   1.04247
 Alpha virt. eigenvalues --    1.04247   1.05527   1.08234   1.09995   1.11381
 Alpha virt. eigenvalues --    1.14564   1.14564   1.16126   1.16126   1.20471
 Alpha virt. eigenvalues --    1.23589   1.24499   1.24514   1.24929   1.25591
 Alpha virt. eigenvalues --    1.25591   1.25657   1.25657   1.30653   1.33172
 Alpha virt. eigenvalues --    1.33943   1.33943   1.34067   1.36091   1.37908
 Alpha virt. eigenvalues --    1.38022   1.38209   1.38209   1.39298   1.39298
 Alpha virt. eigenvalues --    1.39692   1.40127   1.40444   1.40444   1.41024
 Alpha virt. eigenvalues --    1.42284   1.42284   1.47484   1.48589   1.49123
 Alpha virt. eigenvalues --    1.52236   1.52236   1.53623   1.54162   1.55425
 Alpha virt. eigenvalues --    1.55425   1.56207   1.64403   1.65016   1.68182
 Alpha virt. eigenvalues --    1.68277   1.68277   1.69757   1.69757   1.73141
 Alpha virt. eigenvalues --    1.73191   1.76510   1.76510   1.78811   1.85569
 Alpha virt. eigenvalues --    1.86319   1.86319   1.86395   1.88324   1.89790
 Alpha virt. eigenvalues --    1.89790   1.90975   1.91890   1.95000   1.95824
 Alpha virt. eigenvalues --    1.95824   1.96982   1.97432   1.97906   1.97906
 Alpha virt. eigenvalues --    1.98010   2.01684   2.01684   2.02039   2.02575
 Alpha virt. eigenvalues --    2.02575   2.03185   2.04622   2.07625   2.07625
 Alpha virt. eigenvalues --    2.08335   2.16241   2.17725   2.19650   2.23260
 Alpha virt. eigenvalues --    2.23260   2.24816   2.24816   2.25168   2.26976
 Alpha virt. eigenvalues --    2.26976   2.27940   2.28740   2.29210   2.29948
 Alpha virt. eigenvalues --    2.29975   2.31509   2.31509   2.32263   2.35397
 Alpha virt. eigenvalues --    2.35397   2.38599   2.40471   2.40471   2.40793
 Alpha virt. eigenvalues --    2.42544   2.44112   2.44112   2.45254   2.46532
 Alpha virt. eigenvalues --    2.50070   2.52062   2.54116   2.54116   2.58227
 Alpha virt. eigenvalues --    2.58227   2.59817   2.62280   2.62923   2.65364
 Alpha virt. eigenvalues --    2.65364   2.65868   2.73230   2.78325   2.78325
 Alpha virt. eigenvalues --    2.79491   2.80641   2.83205   2.83205   2.86224
 Alpha virt. eigenvalues --    2.86224   2.86275   2.87311   2.89356   2.89604
 Alpha virt. eigenvalues --    2.90709   2.91804   2.91804   3.03288   3.05563
 Alpha virt. eigenvalues --    3.05563   3.06734   3.11927   3.11927   3.16080
 Alpha virt. eigenvalues --    3.25873   3.29518   3.35834   3.38077   3.38077
 Alpha virt. eigenvalues --    4.01329   4.03924   4.03924   4.06274   4.08459
 Alpha virt. eigenvalues --    4.11400   4.11400   4.13618   4.19746   4.21486
 Alpha virt. eigenvalues --    4.21486   4.27945   4.36491   4.36695   4.39406
 Alpha virt. eigenvalues --    4.39406   4.47010   4.47010   4.49273   4.51552
 Alpha virt. eigenvalues --    4.58169   4.63272   4.64100   4.64100
          Condensed to atoms (all electrons):
              1          2          3          4          5          6
     1  C    5.174165   0.555644  -0.064419   0.384578  -0.087489  -0.091031
     2  C    0.555644   5.174165   0.384578  -0.064419  -0.087489   0.009878
     3  C   -0.064419   0.384578   4.668339  -0.044304   0.429145   0.004797
     4  C    0.384578  -0.064419  -0.044304   4.668339   0.429145   0.364187
     5  N   -0.087489  -0.087489   0.429145   0.429145   6.942721  -0.080011
     6  C   -0.091031   0.009878   0.004797   0.364187  -0.080011   5.432577
     7  C    0.007212  -0.000151  -0.000257  -0.000679   0.003217   0.364187
     8  N    0.000226  -0.000061   0.000299   0.003217  -0.011745  -0.080011
     9  C    0.000007   0.000001  -0.000002  -0.000257   0.000299   0.004797
    10  C   -0.000250   0.000003   0.000007   0.007212   0.000226  -0.091031
    11  C    0.000003   0.000000   0.000001  -0.000151  -0.000061   0.009878
    12  C    0.000000   0.000000   0.000000  -0.000011   0.000071  -0.000729
    13  C    0.000000   0.000000  -0.000001   0.000007  -0.000037  -0.000011
    14  N    0.000000   0.000000  -0.000037  -0.000037   0.000203   0.000071
    15  C    0.000000   0.000000   0.000000   0.000000   0.000000   0.000000
    16  C    0.000000   0.000000   0.000000   0.000000   0.000000   0.000000
    17  C    0.000001   0.000007  -0.000257  -0.000002   0.000299   0.000000
    18  N   -0.000061   0.000226   0.003217   0.000299  -0.011745   0.000071
    19  C   -0.000151   0.007212  -0.000679  -0.000257   0.003217  -0.000011
    20  C    0.000003  -0.000250   0.007212   0.000007   0.000226   0.000000
    21  C    0.000000   0.000003  -0.000151   0.000001  -0.000061   0.000000
    22  C    0.009878  -0.091031   0.364187   0.004797  -0.080011  -0.000729
    23  C    0.000000   0.000000  -0.000011   0.000000   0.000071  -0.000001
    24  C    0.000000   0.000000   0.000007  -0.000001  -0.000037   0.000000
    25  H    0.344665  -0.037389   0.005555  -0.038113   0.005412  -0.000979
    26  H   -0.037389   0.344665  -0.038113   0.005555   0.005412  -0.000072
    27  H   -0.005128  -0.000038   0.000010  -0.035481   0.002990   0.356144
    28  H    0.000000   0.000000   0.000000   0.000044   0.000003  -0.000979
    29  H    0.000000   0.000000   0.000000   0.000001   0.000000  -0.000072
    30  H    0.000000   0.000000   0.000000   0.000000   0.000000   0.000006
    31  H    0.000000   0.000000   0.000000   0.000000   0.000000   0.000000
    32  H    0.000000   0.000000   0.000000   0.000000   0.000000   0.000000
    33  H    0.000000   0.000000   0.000044   0.000000   0.000003   0.000000
    34  H    0.000000   0.000000   0.000001   0.000000   0.000000   0.000000
    35  H   -0.000038  -0.005128  -0.035481   0.000010   0.002990   0.000006
    36  H    0.000000   0.000000   0.000000   0.000000   0.000000   0.000000
              7          8          9         10         11         12
     1  C    0.007212   0.000226   0.000007  -0.000250   0.000003   0.000000
     2  C   -0.000151  -0.000061   0.000001   0.000003   0.000000   0.000000
     3  C   -0.000257   0.000299  -0.000002   0.000007   0.000001   0.000000
     4  C   -0.000679   0.003217  -0.000257   0.007212  -0.000151  -0.000011
     5  N    0.003217  -0.011745   0.000299   0.000226  -0.000061   0.000071
     6  C    0.364187  -0.080011   0.004797  -0.091031   0.009878  -0.000729
     7  C    4.668339   0.429145  -0.044304   0.384578  -0.064419   0.004797
     8  N    0.429145   6.942721   0.429145  -0.087489  -0.087489  -0.080011
     9  C   -0.044304   0.429145   4.668339  -0.064419   0.384578   0.364187
    10  C    0.384578  -0.087489  -0.064419   5.174165   0.555644   0.009878
    11  C   -0.064419  -0.087489   0.384578   0.555644   5.174165  -0.091031
    12  C    0.004797  -0.080011   0.364187   0.009878  -0.091031   5.432577
    13  C   -0.000257   0.003217  -0.000679  -0.000151   0.007212   0.364187
    14  N    0.000299  -0.011745   0.003217  -0.000061   0.000226  -0.080011
    15  C    0.000001  -0.000061  -0.000151   0.000000   0.000003   0.009878
    16  C    0.000007   0.000226   0.007212   0.000003  -0.000250  -0.091031
    17  C   -0.000001  -0.000037   0.000007   0.000000   0.000000  -0.000011
    18  N   -0.000037   0.000203  -0.000037   0.000000   0.000000   0.000071
    19  C    0.000007  -0.000037  -0.000001   0.000000   0.000000   0.000000
    20  C    0.000000   0.000000   0.000000   0.000000   0.000000   0.000000
    21  C    0.000000   0.000000   0.000000   0.000000   0.000000   0.000000
    22  C   -0.000011   0.000071   0.000000   0.000000   0.000000  -0.000001
    23  C    0.000000   0.000071  -0.000011   0.000000   0.000000  -0.000729
    24  C   -0.000002   0.000299  -0.000257   0.000001   0.000007   0.004797
    25  H    0.000044   0.000003   0.000000   0.000000   0.000000   0.000000
    26  H    0.000001   0.000000   0.000000   0.000000   0.000000   0.000000
    27  H   -0.035481   0.002990   0.000010  -0.005128  -0.000038   0.000006
    28  H   -0.038113   0.005412   0.005555   0.344665  -0.037389  -0.000072
    29  H    0.005555   0.005412  -0.038113  -0.037389   0.344665  -0.000979
    30  H    0.000010   0.002990  -0.035481  -0.000038  -0.005128   0.356144
    31  H    0.000000   0.000000   0.000001   0.000000   0.000000  -0.000072
    32  H    0.000000   0.000003   0.000044   0.000000   0.000000  -0.000979
    33  H    0.000000   0.000000   0.000000   0.000000   0.000000   0.000000
    34  H    0.000000   0.000000   0.000000   0.000000   0.000000   0.000000
    35  H    0.000000   0.000000   0.000000   0.000000   0.000000   0.000000
    36  H    0.000000   0.000000   0.000000   0.000000   0.000000   0.000006
             13         14         15         16         17         18
     1  C    0.000000   0.000000   0.000000   0.000000   0.000001  -0.000061
     2  C    0.000000   0.000000   0.000000   0.000000   0.000007   0.000226
     3  C   -0.000001  -0.000037   0.000000   0.000000  -0.000257   0.003217
     4  C    0.000007  -0.000037   0.000000   0.000000  -0.000002   0.000299
     5  N   -0.000037   0.000203   0.000000   0.000000   0.000299  -0.011745
     6  C   -0.000011   0.000071   0.000000   0.000000   0.000000   0.000071
     7  C   -0.000257   0.000299   0.000001   0.000007  -0.000001  -0.000037
     8  N    0.003217  -0.011745  -0.000061   0.000226  -0.000037   0.000203
     9  C   -0.000679   0.003217  -0.000151   0.007212   0.000007  -0.000037
    10  C   -0.000151  -0.000061   0.000000   0.000003   0.000000   0.000000
    11  C    0.007212   0.000226   0.000003  -0.000250   0.000000   0.000000
    12  C    0.364187  -0.080011   0.009878  -0.091031  -0.000011   0.000071
    13  C    4.668339   0.429145  -0.064419   0.384578  -0.000257   0.000299
    14  N    0.429145   6.942721  -0.087489  -0.087489   0.003217  -0.011745
    15  C   -0.064419  -0.087489   5.174165   0.555644   0.007212   0.000226
    16  C    0.384578  -0.087489   0.555644   5.174165  -0.000151  -0.000061
    17  C   -0.000257   0.003217   0.007212  -0.000151   4.668339   0.429145
    18  N    0.000299  -0.011745   0.000226  -0.000061   0.429145   6.942721
    19  C   -0.000002   0.000299   0.000007   0.000001  -0.044304   0.429145
    20  C    0.000001  -0.000061   0.000003   0.000000  -0.064419  -0.087489
    21  C    0.000007   0.000226  -0.000250   0.000003   0.384578  -0.087489
    22  C    0.000000   0.000071   0.000000   0.000000   0.004797  -0.080011
    23  C    0.004797  -0.080011  -0.091031   0.009878   0.364187  -0.080011
    24  C   -0.044304   0.429145   0.384578  -0.064419  -0.000679   0.003217
    25  H    0.000000   0.000000   0.000000   0.000000   0.000000   0.000000
    26  H    0.000000   0.000000   0.000000   0.000000   0.000000   0.000003
    27  H    0.000000   0.000000   0.000000   0.000000   0.000000   0.000000
    28  H    0.000001   0.000000   0.000000   0.000000   0.000000   0.000000
    29  H    0.000044   0.000003   0.000000   0.000000   0.000000   0.000000
    30  H   -0.035481   0.002990  -0.000038  -0.005128   0.000000   0.000000
    31  H    0.005555   0.005412   0.344665  -0.037389   0.000044   0.000003
    32  H   -0.038113   0.005412  -0.037389   0.344665   0.000001   0.000000
    33  H    0.000000   0.000000   0.000000   0.000000   0.005555   0.005412
    34  H    0.000000   0.000003   0.000000   0.000000  -0.038113   0.005412
    35  H    0.000000   0.000000   0.000000   0.000000   0.000010   0.002990
    36  H    0.000010   0.002990  -0.005128  -0.000038  -0.035481   0.002990
             19         20         21         22         23         24
     1  C   -0.000151   0.000003   0.000000   0.009878   0.000000   0.000000
     2  C    0.007212  -0.000250   0.000003  -0.091031   0.000000   0.000000
     3  C   -0.000679   0.007212  -0.000151   0.364187  -0.000011   0.000007
     4  C   -0.000257   0.000007   0.000001   0.004797   0.000000  -0.000001
     5  N    0.003217   0.000226  -0.000061  -0.080011   0.000071  -0.000037
     6  C   -0.000011   0.000000   0.000000  -0.000729  -0.000001   0.000000
     7  C    0.000007   0.000000   0.000000  -0.000011   0.000000  -0.000002
     8  N   -0.000037   0.000000   0.000000   0.000071   0.000071   0.000299
     9  C   -0.000001   0.000000   0.000000   0.000000  -0.000011  -0.000257
    10  C    0.000000   0.000000   0.000000   0.000000   0.000000   0.000001
    11  C    0.000000   0.000000   0.000000   0.000000   0.000000   0.000007
    12  C    0.000000   0.000000   0.000000  -0.000001  -0.000729   0.004797
    13  C   -0.000002   0.000001   0.000007   0.000000   0.004797  -0.044304
    14  N    0.000299  -0.000061   0.000226   0.000071  -0.080011   0.429145
    15  C    0.000007   0.000003  -0.000250   0.000000  -0.091031   0.384578
    16  C    0.000001   0.000000   0.000003   0.000000   0.009878  -0.064419
    17  C   -0.044304  -0.064419   0.384578   0.004797   0.364187  -0.000679
    18  N    0.429145  -0.087489  -0.087489  -0.080011  -0.080011   0.003217
    19  C    4.668339   0.384578  -0.064419   0.364187   0.004797  -0.000257
    20  C    0.384578   5.174165   0.555644  -0.091031   0.009878  -0.000151
    21  C   -0.064419   0.555644   5.174165   0.009878  -0.091031   0.007212
    22  C    0.364187  -0.091031   0.009878   5.432577  -0.000729  -0.000011
    23  C    0.004797   0.009878  -0.091031  -0.000729   5.432577   0.364187
    24  C   -0.000257  -0.000151   0.007212  -0.000011   0.364187   4.668339
    25  H    0.000001   0.000000   0.000000  -0.000072   0.000000   0.000000
    26  H    0.000044   0.000000   0.000000  -0.000979   0.000000   0.000000
    27  H    0.000000   0.000000   0.000000   0.000006   0.000000   0.000000
    28  H    0.000000   0.000000   0.000000   0.000000   0.000000   0.000000
    29  H    0.000000   0.000000   0.000000   0.000000   0.000000   0.000000
    30  H    0.000000   0.000000   0.000000   0.000000   0.000006   0.000010
    31  H    0.000000   0.000000   0.000000   0.000000  -0.000979  -0.038113
    32  H    0.000000   0.000000   0.000000   0.000000  -0.000072   0.005555
    33  H   -0.038113   0.344665  -0.037389  -0.000979  -0.000072   0.000001
    34  H    0.005555  -0.037389   0.344665  -0.000072  -0.000979   0.000044
    35  H   -0.035481  -0.005128  -0.000038   0.356144   0.000006   0.000000
    36  H    0.000010  -0.000038  -0.005128   0.000006   0.356144  -0.035481
             25         26         27         28         29         30
     1  C    0.344665  -0.037389  -0.005128   0.000000   0.000000   0.000000
     2  C   -0.037389   0.344665  -0.000038   0.000000   0.000000   0.000000
     3  C    0.005555  -0.038113   0.000010   0.000000   0.000000   0.000000
     4  C   -0.038113   0.005555  -0.035481   0.000044   0.000001   0.000000
     5  N    0.005412   0.005412   0.002990   0.000003   0.000000   0.000000
     6  C   -0.000979  -0.000072   0.356144  -0.000979  -0.000072   0.000006
     7  C    0.000044   0.000001  -0.035481  -0.038113   0.005555   0.000010
     8  N    0.000003   0.000000   0.002990   0.005412   0.005412   0.002990
     9  C    0.000000   0.000000   0.000010   0.005555  -0.038113  -0.035481
    10  C    0.000000   0.000000  -0.005128   0.344665  -0.037389  -0.000038
    11  C    0.000000   0.000000  -0.000038  -0.037389   0.344665  -0.005128
    12  C    0.000000   0.000000   0.000006  -0.000072  -0.000979   0.356144
    13  C    0.000000   0.000000   0.000000   0.000001   0.000044  -0.035481
    14  N    0.000000   0.000000   0.000000   0.000000   0.000003   0.002990
    15  C    0.000000   0.000000   0.000000   0.000000   0.000000  -0.000038
    16  C    0.000000   0.000000   0.000000   0.000000   0.000000  -0.005128
    17  C    0.000000   0.000000   0.000000   0.000000   0.000000   0.000000
    18  N    0.000000   0.000003   0.000000   0.000000   0.000000   0.000000
    19  C    0.000001   0.000044   0.000000   0.000000   0.000000   0.000000
    20  C    0.000000   0.000000   0.000000   0.000000   0.000000   0.000000
    21  C    0.000000   0.000000   0.000000   0.000000   0.000000   0.000000
    22  C   -0.000072  -0.000979   0.000006   0.000000   0.000000   0.000000
    23  C    0.000000   0.000000   0.000000   0.000000   0.000000   0.000006
    24  C    0.000000   0.000000   0.000000   0.000000   0.000000   0.000010
    25  H    0.593531  -0.001163   0.003204   0.000000   0.000000   0.000000
    26  H   -0.001163   0.593531  -0.000006   0.000000   0.000000   0.000000
    27  H    0.003204  -0.000006   0.547233   0.003204  -0.000006   0.000000
    28  H    0.000000   0.000000   0.003204   0.593531  -0.001163  -0.000006
    29  H    0.000000   0.000000  -0.000006  -0.001163   0.593531   0.003204
    30  H    0.000000   0.000000   0.000000  -0.000006   0.003204   0.547233
    31  H    0.000000   0.000000   0.000000   0.000000   0.000000  -0.000006
    32  H    0.000000   0.000000   0.000000   0.000000   0.000000   0.003204
    33  H    0.000000   0.000000   0.000000   0.000000   0.000000   0.000000
    34  H    0.000000   0.000000   0.000000   0.000000   0.000000   0.000000
    35  H   -0.000006   0.003204   0.000000   0.000000   0.000000   0.000000
    36  H    0.000000   0.000000   0.000000   0.000000   0.000000   0.000000
             31         32         33         34         35         36
     1  C    0.000000   0.000000   0.000000   0.000000  -0.000038   0.000000
     2  C    0.000000   0.000000   0.000000   0.000000  -0.005128   0.000000
     3  C    0.000000   0.000000   0.000044   0.000001  -0.035481   0.000000
     4  C    0.000000   0.000000   0.000000   0.000000   0.000010   0.000000
     5  N    0.000000   0.000000   0.000003   0.000000   0.002990   0.000000
     6  C    0.000000   0.000000   0.000000   0.000000   0.000006   0.000000
     7  C    0.000000   0.000000   0.000000   0.000000   0.000000   0.000000
     8  N    0.000000   0.000003   0.000000   0.000000   0.000000   0.000000
     9  C    0.000001   0.000044   0.000000   0.000000   0.000000   0.000000
    10  C    0.000000   0.000000   0.000000   0.000000   0.000000   0.000000
    11  C    0.000000   0.000000   0.000000   0.000000   0.000000   0.000000
    12  C   -0.000072  -0.000979   0.000000   0.000000   0.000000   0.000006
    13  C    0.005555  -0.038113   0.000000   0.000000   0.000000   0.000010
    14  N    0.005412   0.005412   0.000000   0.000003   0.000000   0.002990
    15  C    0.344665  -0.037389   0.000000   0.000000   0.000000  -0.005128
    16  C   -0.037389   0.344665   0.000000   0.000000   0.000000  -0.000038
    17  C    0.000044   0.000001   0.005555  -0.038113   0.000010  -0.035481
    18  N    0.000003   0.000000   0.005412   0.005412   0.002990   0.002990
    19  C    0.000000   0.000000  -0.038113   0.005555  -0.035481   0.000010
    20  C    0.000000   0.000000   0.344665  -0.037389  -0.005128  -0.000038
    21  C    0.000000   0.000000  -0.037389   0.344665  -0.000038  -0.005128
    22  C    0.000000   0.000000  -0.000979  -0.000072   0.356144   0.000006
    23  C   -0.000979  -0.000072  -0.000072  -0.000979   0.000006   0.356144
    24  C   -0.038113   0.005555   0.000001   0.000044   0.000000  -0.035481
    25  H    0.000000   0.000000   0.000000   0.000000  -0.000006   0.000000
    26  H    0.000000   0.000000   0.000000   0.000000   0.003204   0.000000
    27  H    0.000000   0.000000   0.000000   0.000000   0.000000   0.000000
    28  H    0.000000   0.000000   0.000000   0.000000   0.000000   0.000000
    29  H    0.000000   0.000000   0.000000   0.000000   0.000000   0.000000
    30  H   -0.000006   0.003204   0.000000   0.000000   0.000000   0.000000
    31  H    0.593531  -0.001163   0.000000   0.000000   0.000000   0.003204
    32  H   -0.001163   0.593531   0.000000   0.000000   0.000000  -0.000006
    33  H    0.000000   0.000000   0.593531  -0.001163   0.003204  -0.000006
    34  H    0.000000   0.000000  -0.001163   0.593531  -0.000006   0.003204
    35  H    0.000000   0.000000   0.003204  -0.000006   0.547233   0.000000
    36  H    0.003204  -0.000006  -0.000006   0.003204   0.000000   0.547233
 Mulliken atomic charges:
              1
     1  C   -0.190424
     2  C   -0.190424
     3  C    0.316313
     4  C    0.316313
     5  N   -0.466968
     6  C   -0.200934
     7  C    0.316313
     8  N   -0.466968
     9  C    0.316313
    10  C   -0.190424
    11  C   -0.190424
    12  C   -0.200934
    13  C    0.316313
    14  N   -0.466968
    15  C   -0.190424
    16  C   -0.190424
    17  C    0.316313
    18  N   -0.466968
    19  C    0.316313
    20  C   -0.190424
    21  C   -0.190424
    22  C   -0.200934
    23  C   -0.200934
    24  C    0.316313
    25  H    0.125307
    26  H    0.125307
    27  H    0.165510
    28  H    0.125307
    29  H    0.125307
    30  H    0.165510
    31  H    0.125307
    32  H    0.125307
    33  H    0.125307
    34  H    0.125307
    35  H    0.165510
    36  H    0.165510
 Sum of Mulliken atomic charges =   0.00000
 Mulliken charges with hydrogens summed into heavy atoms:
              1
     1  C   -0.065117
     2  C   -0.065117
     3  C    0.316313
     4  C    0.316313
     5  N   -0.466968
     6  C   -0.035424
     7  C    0.316313
     8  N   -0.466968
     9  C    0.316313
    10  C   -0.065117
    11  C   -0.065117
    12  C   -0.035424
    13  C    0.316313
    14  N   -0.466968
    15  C   -0.065117
    16  C   -0.065117
    17  C    0.316313
    18  N   -0.466968
    19  C    0.316313
    20  C   -0.065117
    21  C   -0.065117
    22  C   -0.035424
    23  C   -0.035424
    24  C    0.316313
 Sum of Mulliken charges with hydrogens summed into heavy atoms =   0.00000
 Electronic spatial extent (au):  <R**2>=           7483.3513
 Charge=              0.0000 electrons
 Dipole moment (field-independent basis, Debye):
    X=              0.0000    Y=              0.0000    Z=              0.0000  Tot=              0.0000
 Quadrupole moment (field-independent basis, Debye-Ang):
   XX=           -104.2056   YY=           -104.2056   ZZ=           -139.1646
   XY=              0.0000   XZ=              0.0000   YZ=              0.0000
 Traceless Quadrupole moment (field-independent basis, Debye-Ang):
   XX=             11.6530   YY=             11.6530   ZZ=            -23.3060
   XY=              0.0000   XZ=              0.0000   YZ=              0.0000
 Octapole moment (field-independent basis, Debye-Ang**2):
  XXX=              0.0000  YYY=              0.0000  ZZZ=              0.0000  XYY=              0.0000
  XXY=              0.0000  XXZ=              0.0000  XZZ=              0.0000  YZZ=              0.0000
  YYZ=              0.0000  XYZ=              0.0000
 Hexadecapole moment (field-independent basis, Debye-Ang**3):
 XXXX=          -4689.0906 YYYY=          -4689.0906 ZZZZ=           -139.0123 XXXY=              0.0000
 XXXZ=              0.0000 YYYX=              0.0000 YYYZ=              0.0000 ZZZX=              0.0000
 ZZZY=              0.0000 XXYY=          -1380.9504 XXZZ=           -946.1879 YYZZ=           -946.1879
 XXYZ=              0.0000 YYXZ=              0.0000 ZZXY=              0.0000
 N-N= 1.811693266651D+03 E-N=-5.918500348317D+03  KE= 9.796814865714D+02
 Symmetry AG   KE= 2.885628509812D+02
 Symmetry B1G  KE= 1.871558630879D+02
 Symmetry B2G  KE= 7.073659525182D+00
 Symmetry B3G  KE= 7.073659525182D+00
 Symmetry AU   KE= 4.606588559475D+00
 Symmetry B1U  KE= 9.424565490705D+00
 Symmetry B2U  KE= 2.378921497009D+02
 Symmetry B3U  KE= 2.378921497009D+02
 Calling FoFJK, ICntrl=      2127 FMM=F ISym2X=1 I1Cent= 0 IOpClX= 0 NMat=1 NMatS=1 NMatT=0.
 ***** Axes restored to original set *****
 -------------------------------------------------------------------
 Center     Atomic                   Forces (Hartrees/Bohr)
 Number     Number              X              Y              Z
 -------------------------------------------------------------------
      1        6          -0.014591168   -0.028988155    0.000000000
      2        6           0.014591168   -0.028988155    0.000000000
      3        6          -0.004975278    0.000778883    0.000000000
      4        6           0.004975278    0.000778883    0.000000000
      5        7           0.000000000    0.022416642    0.000000000
      6        6          -0.018760074    0.018760074    0.000000000
      7        6          -0.000778883   -0.004975278    0.000000000
      8        7          -0.022416642    0.000000000    0.000000000
      9        6          -0.000778883    0.004975278    0.000000000
     10        6           0.028988155    0.014591168    0.000000000
     11        6           0.028988155   -0.014591168    0.000000000
     12        6          -0.018760074   -0.018760074    0.000000000
     13        6           0.004975278   -0.000778883    0.000000000
     14        7           0.000000000   -0.022416642    0.000000000
     15        6           0.014591168    0.028988155    0.000000000
     16        6          -0.014591168    0.028988155    0.000000000
     17        6           0.000778883    0.004975278    0.000000000
     18        7           0.022416642    0.000000000    0.000000000
     19        6           0.000778883   -0.004975278    0.000000000
     20        6          -0.028988155    0.014591168    0.000000000
     21        6          -0.028988155   -0.014591168    0.000000000
     22        6           0.018760074    0.018760074    0.000000000
     23        6           0.018760074   -0.018760074    0.000000000
     24        6          -0.004975278   -0.000778883    0.000000000
     25        1           0.002273087   -0.000281683    0.000000000
     26        1          -0.002273087   -0.000281683    0.000000000
     27        1          -0.000049263    0.000049263    0.000000000
     28        1           0.000281683   -0.002273087    0.000000000
     29        1           0.000281683    0.002273087    0.000000000
     30        1          -0.000049263   -0.000049263    0.000000000
     31        1          -0.002273087    0.000281683    0.000000000
     32        1           0.002273087    0.000281683    0.000000000
     33        1          -0.000281683   -0.002273087    0.000000000
     34        1          -0.000281683    0.002273087    0.000000000
     35        1           0.000049263    0.000049263    0.000000000
     36        1           0.000049263   -0.000049263    0.000000000
 -------------------------------------------------------------------
 Cartesian Forces:  Max     0.028988155 RMS     0.011178741

 GradGradGradGradGradGradGradGradGradGradGradGradGradGradGradGradGradGrad
 Berny optimization.
 Internal  Forces:  Max     0.029978315 RMS     0.007707926
 Search for a local minimum.
 Step number   1 out of a maximum of  210
 All quantities printed in internal units (Hartrees-Bohrs-Radians)
 Mixed Optimization -- RFO/linear search
 Second derivative matrix not updated -- first step.
 ITU=  0
     Eigenvalues ---    0.01961   0.01961   0.01964   0.01964   0.01975
     Eigenvalues ---    0.01975   0.01975   0.01975   0.01975   0.01975
     Eigenvalues ---    0.01975   0.01975   0.01975   0.01977   0.01977
     Eigenvalues ---    0.01977   0.01977   0.02013   0.02013   0.02014
     Eigenvalues ---    0.02014   0.02072   0.02076   0.02076   0.02078
     Eigenvalues ---    0.02187   0.02187   0.02231   0.02231   0.02237
     Eigenvalues ---    0.02237   0.02237   0.02237   0.16000   0.16000
     Eigenvalues ---    0.16000   0.16000   0.16000   0.16000   0.16000
     Eigenvalues ---    0.16000   0.16000   0.16000   0.16000   0.16000
     Eigenvalues ---    0.22000   0.22810   0.22810   0.22830   0.22830
     Eigenvalues ---    0.23184   0.23387   0.23387   0.24747   0.24747
     Eigenvalues ---    0.24747   0.24750   0.25000   0.25000   0.25000
     Eigenvalues ---    0.25000   0.25000   0.35169   0.35169   0.35169
     Eigenvalues ---    0.35169   0.35736   0.35736   0.35736   0.35736
     Eigenvalues ---    0.35736   0.35736   0.35736   0.35736   0.38626
     Eigenvalues ---    0.38626   0.38672   0.38672   0.41621   0.41647
     Eigenvalues ---    0.41647   0.41896   0.43442   0.43442   0.44220
     Eigenvalues ---    0.44220   0.44220   0.44220   0.44220   0.44220
     Eigenvalues ---    0.46248   0.46470   0.46470   0.47245   0.52277
     Eigenvalues ---    0.52277   0.52885   0.53006   0.53006   0.53007
     Eigenvalues ---    0.53007   0.53009
 RFO step:  Lambda=-3.26160449D-02 EMin= 1.96072725D-02
 Linear search not attempted -- first point.
 Maximum step size (   0.300) exceeded in Quadratic search.
    -- Step size scaled by   0.966
 Iteration  1 RMS(Cart)=  0.03547241 RMS(Int)=  0.00030731
 Iteration  2 RMS(Cart)=  0.00094371 RMS(Int)=  0.00004337
 Iteration  3 RMS(Cart)=  0.00000004 RMS(Int)=  0.00004337
 ClnCor:  largest displacement from symmetrization is 1.23D-11 for atom    32.
 Variable       Old X    -DE/DX   Delta X   Delta X   Delta X     New X
                                 (Linear)    (Quad)   (Total)
    R1        2.59100  -0.00560   0.00000  -0.00929  -0.00919   2.58181
    R2        2.68461   0.02998   0.00000   0.06373   0.06375   2.74836
    R3        2.04497   0.00157   0.00000   0.00389   0.00389   2.04886
    R4        2.68461   0.02998   0.00000   0.06373   0.06375   2.74836
    R5        2.04497   0.00157   0.00000   0.00389   0.00389   2.04886
[...]
 ,0.,-0.00083460,0.,0.,0.00018813,0.,0.,0.00002106,0.,0.,-0.00017520,0.
 ,0.,-0.00001136,0.,0.,-0.00001544,0.,0.,0.00000447,0.,0.,0.00000701,0.
 ,0.,-0.00001100,0.,0.,-0.00003366,0.,0.,0.00004458,0.,0.,-0.00012328,0
 .,0.,0.00003119,0.,0.,-0.00000206,0.,0.,0.00024860,0.,0.,0.02159641,0.
 00005757,-0.00003186,0.,0.00003206,-0.00002513,0.,0.00094738,0.0001402
 7,0.,0.00086488,0.00010509,0.,-0.00095691,-0.00011399,0.,-0.00019869,-
 0.00077779,0.,-0.00205993,0.00348159,0.,-0.00599228,-0.00271033,0.,-0.
 00676781,-0.01650679,0.,0.00785284,0.00497672,0.,-0.24156908,-0.142461
 06,0.,0.00141273,-0.00276340,0.,-0.00134028,0.00020565,0.,0.00122979,0
 .00012533,0.,-0.00012670,0.00006003,0.,-0.00007079,-0.00003167,0.,0.00
 021570,-0.00101395,0.,-0.00005748,0.00090217,0.,-0.00011039,-0.0009444
 7,0.,-0.00003056,-0.00005854,0.,0.00000882,-0.00004407,0.,-0.00073753,
 0.00074481,0.,0.00084983,0.00088129,0.,-0.00106148,0.00015267,0.,0.000
 00197,-0.00000916,0.,0.00000079,-0.00001865,0.,-0.00000465,-0.00008860
 ,0.,0.00002354,-0.00074860,0.,0.24759812,-0.00007511,0.00008405,0.,-0.
 00004786,-0.00001352,0.,0.00001775,-0.00002416,0.,0.00018829,-0.000488
 60,0.,0.00001985,0.00000323,0.,-0.00180897,-0.00000011,0.,0.00036938,-
 0.00535104,0.,0.00416574,-0.00007791,0.,0.00739185,0.00972360,0.,-0.02
 538357,-0.00672120,0.,-0.14032638,-0.16875658,0.,-0.00012617,0.0006602
 6,0.,-0.00051869,-0.00005513,0.,0.00030212,0.00003204,0.,-0.00008137,-
 0.00004436,0.,0.00005436,-0.00006593,0.,-0.00003693,-0.00023073,0.,-0.
 00002933,0.00017621,0.,-0.00010013,-0.00015008,0.,0.00005169,-0.000075
 43,0.,0.00005875,0.00005521,0.,-0.00005946,0.00008689,0.,0.00025007,0.
 00022469,0.,-0.00038967,0.00012570,0.,0.00000564,-0.00000329,0.,-0.000
 02200,0.00000079,0.,0.00001408,0.00004834,0.,0.00074860,0.00077117,0.,
 0.15554933,0.17019712,0.,0.,-0.00017520,0.,0.,0.00002106,0.,0.,-0.0001
 2328,0.,0.,-0.00083460,0.,0.,0.00018813,0.,0.,0.00112104,0.,0.,0.00726
 122,0.,0.,0.00459894,0.,0.,-0.00218075,0.,0.,0.00176721,0.,0.,-0.02888
 623,0.,0.,-0.00133223,0.,0.,0.00006939,0.,0.,0.00000038,0.,0.,0.000034
 23,0.,0.,-0.00006516,0.,0.,0.00000447,0.,0.,-0.00001544,0.,0.,-0.00001
 136,0.,0.,-0.00001100,0.,0.,0.00000701,0.,0.,0.00004458,0.,0.,-0.00003
 366,0.,0.,0.00003291,0.,0.,-0.00000206,0.,0.,0.00005135,0.,0.,0.000299
 84,0.,0.,-0.00371492,0.,0.,0.02159641,-0.00018892,0.00011786,0.,-0.000
 26919,-0.00005844,0.,-0.00428163,-0.00072717,0.,-0.00431930,0.00069740
 ,0.,0.00394328,-0.00003892,0.,0.00349005,0.00367472,0.,0.00113470,-0.0
 0402769,0.,-0.00048468,0.00637821,0.,0.00888891,0.00337667,0.,0.000034
 09,-0.00061378,0.,0.00060453,0.00077527,0.,-0.20010792,-0.13073467,0.,
 -0.01247042,-0.02452260,0.,-0.00924338,0.00383007,0.,0.00038225,0.0004
 5636,0.,0.00116757,-0.00060779,0.,-0.00063727,0.00423617,0.,-0.0000234
 7,-0.00391577,0.,0.00069143,0.00422553,0.,0.00007300,0.00021305,0.,-0.
 00008365,0.00022123,0.,0.00342089,-0.00340736,0.,-0.00378496,-0.002921
 55,0.,0.00370735,-0.00243349,0.,0.00000613,-0.00001512,0.,-0.00000190,
 0.00000539,0.,0.00005365,0.00009598,0.,-0.00000465,-0.00001408,0.,0.00
 000978,-0.00016626,0.,0.20859194,0.00022123,-0.00008365,0.,0.00021305,
 0.00007300,0.,0.00422553,0.00069143,0.,0.00423617,-0.00063727,0.,-0.00
 391577,-0.00002347,0.,-0.00292155,-0.00378496,0.,-0.00243349,0.0037073
 5,0.,0.00383007,-0.00924338,0.,-0.02452260,-0.01247042,0.,0.00045636,0
 .00038225,0.,-0.00060779,0.00116757,0.,-0.13073467,-0.20010792,0.,0.00
 337666,0.00888891,0.,0.00637821,-0.00048468,0.,-0.00061378,0.00003409,
 0.,0.00077527,0.00060453,0.,0.00069740,-0.00431930,0.,-0.00003892,0.00
 394328,0.,-0.00072717,-0.00428163,0.,-0.00005844,-0.00026919,0.,0.0001
 1786,-0.00018892,0.,-0.00340736,0.00342089,0.,0.00367472,0.00349005,0.
 ,-0.00402769,0.00113470,0.,0.00000094,0.00000875,0.,-0.00000564,-0.000
 01567,0.,-0.00009598,-0.00024073,0.,0.00008860,0.00004834,0.,0.0009508
 9,-0.00013997,0.,0.14501042,0.20859194,0.,0.,0.00003679,0.,0.,-0.00002
 603,0.,0.,-0.00010688,0.,0.,-0.00010836,0.,0.,0.00016098,0.,0.,-0.0010
 1876,0.,0.,-0.00238610,0.,0.,0.00804683,0.,0.,0.00687784,0.,0.,0.00082
 826,0.,0.,-0.00349617,0.,0.,-0.04559368,0.,0.,0.00687784,0.,0.,0.00804
 683,0.,0.,0.00082826,0.,0.,-0.00349617,0.,0.,-0.00010836,0.,0.,0.00016
 098,0.,0.,-0.00010688,0.,0.,-0.00002603,0.,0.,0.00003679,0.,0.,0.00004
 376,0.,0.,-0.00101876,0.,0.,-0.00238610,0.,0.,0.00000500,0.,0.,0.00000
 078,0.,0.,0.00056758,0.,0.,0.00029984,0.,0.,0.00024860,0.,0.,0.0256982
 1,-0.00007543,-0.00005169,0.,0.00005521,-0.00005875,0.,-0.00023073,0.0
 0003693,0.,-0.00015008,0.00010013,0.,0.00017621,0.00002933,0.,0.000086
 89,0.00005946,0.,-0.00002416,-0.00001775,0.,0.00000323,-0.00001985,0.,
 -0.00048860,-0.00018829,0.,-0.00001352,0.00004786,0.,0.00008405,0.0000
 7511,0.,-0.00000011,0.00180897,0.,-0.00535104,-0.00036938,0.,-0.000077
 91,-0.00416574,0.,-0.16875658,0.14032638,0.,-0.00672120,0.02538357,0.,
 -0.00005513,0.00051869,0.,0.00003204,-0.00030212,0.,0.00012570,0.00038
 967,0.,-0.00004436,0.00008137,0.,-0.00006593,-0.00005436,0.,0.00022469
 ,-0.00025007,0.,0.00066026,0.00012617,0.,0.00972360,-0.00739185,0.,-0.
 00000437,0.00000277,0.,0.00000473,0.00000364,0.,-0.00000190,0.00000564
 ,0.,0.00000079,0.00002200,0.,-0.00000329,-0.00000564,0.,0.00004834,-0.
 00001408,0.,0.17019712,0.00005854,-0.00003056,0.,0.00004407,0.00000882
 ,0.,0.00101395,0.00021570,0.,0.00094447,-0.00011039,0.,-0.00090217,-0.
 00005748,0.,-0.00074481,-0.00073753,0.,-0.00014027,0.00094738,0.,0.000
 11399,-0.00095691,0.,-0.00010509,0.00086488,0.,0.00002513,0.00003206,0
 .,0.00003186,0.00005757,0.,0.00077779,-0.00019868,0.,-0.00348159,-0.00
 205993,0.,0.00271033,-0.00599228,0.,0.14246106,-0.24156908,0.,-0.00497
 672,0.00785284,0.,-0.00020565,-0.00134028,0.,-0.00012533,0.00122979,0.
 ,-0.00015267,-0.00106148,0.,-0.00006003,-0.00012670,0.,0.00003167,-0.0
 0007079,0.,-0.00088129,0.00084983,0.,0.00276340,0.00141273,0.,0.016506
 79,-0.00676781,0.,0.00000277,-0.00000395,0.,-0.00000364,-0.00000931,0.
 ,-0.00000539,-0.00001567,0.,0.00001865,0.00000079,0.,0.00000916,0.0000
 0197,0.,0.00008860,-0.00000465,0.,-0.15554933,0.24759812,0.,0.,-0.0000
 1100,0.,0.,0.00000701,0.,0.,0.00000447,0.,0.,-0.00001136,0.,0.,-0.0000
 1544,0.,0.,0.00004458,0.,0.,-0.00012328,0.,0.,0.00018813,0.,0.,-0.0008
 3460,0.,0.,0.00002106,0.,0.,-0.00017520,0.,0.,0.00112104,0.,0.,0.00726
 122,0.,0.,0.00459894,0.,0.,-0.02888623,0.,0.,0.00176721,0.,0.,0.000069
 39,0.,0.,0.00000038,0.,0.,0.00003291,0.,0.,0.00003423,0.,0.,-0.0000651
 6,0.,0.,-0.00003366,0.,0.,-0.00133223,0.,0.,-0.00218075,0.,0.,0.000001
 73,0.,0.,0.00000249,0.,0.,0.00000078,0.,0.,0.00005135,0.,0.,-0.0000020
 6,0.,0.,0.00029984,0.,0.,0.02159641,0.00005521,0.00005875,0.,-0.000075
 43,0.00005169,0.,-0.00015008,-0.00010013,0.,-0.00023073,-0.00003693,0.
 ,0.00017621,-0.00002933,0.,0.00022469,0.00025007,0.,0.00012570,-0.0003
 8967,0.,0.00003204,0.00030213,0.,-0.00005513,-0.00051869,0.,-0.0000443
 6,-0.00008137,0.,-0.00006593,0.00005436,0.,0.00066026,-0.00012617,0.,0
 .00972360,0.00739185,0.,-0.00007791,0.00416574,0.,-0.00672120,-0.02538
 357,0.,-0.16875658,-0.14032638,0.,-0.00048860,0.00018829,0.,0.00000324
 ,0.00001985,0.,-0.00002416,0.00001775,0.,-0.00001352,-0.00004786,0.,0.
 00008405,-0.00007511,0.,0.00008689,-0.00005946,0.,-0.00000011,-0.00180
 897,0.,-0.00535104,0.00036938,0.,0.00000473,-0.00000364,0.,-0.00000437
 ,-0.00000277,0.,0.00000613,-0.00000094,0.,0.00000197,-0.00000564,0.,0.
 00000220,0.00000303,0.,-0.00013997,-0.00016626,0.,0.00077117,0.0007486
 0,0.,0.17019712,-0.00004407,0.00000882,0.,-0.00005854,-0.00003056,0.,-
 0.00094447,-0.00011039,0.,-0.00101395,0.00021570,0.,0.00090217,-0.0000
 5748,0.,0.00088129,0.00084983,0.,0.00015267,-0.00106148,0.,0.00012533,
 0.00122979,0.,0.00020565,-0.00134028,0.,0.00006003,-0.00012670,0.,-0.0
 0003167,-0.00007079,0.,-0.00276340,0.00141273,0.,-0.01650679,-0.006767
 81,0.,-0.00271033,-0.00599228,0.,0.00497672,0.00785284,0.,-0.14246106,
 -0.24156908,0.,0.00010509,0.00086488,0.,-0.00011399,-0.00095690,0.,0.0
 0014027,0.00094738,0.,-0.00002513,0.00003206,0.,-0.00003186,0.00005757
 ,0.,0.00074481,-0.00073753,0.,-0.00077779,-0.00019868,0.,0.00348159,-0
 .00205993,0.,0.00000364,-0.00000931,0.,-0.00000277,-0.00000395,0.,0.00
 001512,0.00000875,0.,0.00000916,-0.00000329,0.,0.00004168,0.00000220,0
 .,0.00095089,0.00000978,0.,-0.00074860,0.00002354,0.,0.15554933,0.2475
 9812,0.,0.,0.00000701,0.,0.,-0.00001100,0.,0.,-0.00001136,0.,0.,0.0000
 0447,0.,0.,-0.00001544,0.,0.,-0.00003366,0.,0.,0.00003291,0.,0.,0.0000
 0038,0.,0.,0.00006939,0.,0.,0.00003423,0.,0.,-0.00006516,0.,0.,-0.0013
 3223,0.,0.,-0.00218075,0.,0.,0.00459894,0.,0.,0.00176721,0.,0.,-0.0288
 8623,0.,0.,-0.00083460,0.,0.,0.00018813,0.,0.,-0.00012328,0.,0.,0.0000
 2106,0.,0.,-0.00017520,0.,0.,0.00004458,0.,0.,0.00112104,0.,0.,0.00726
 122,0.,0.,0.00000249,0.,0.,0.00000173,0.,0.,0.00000500,0.,0.,-0.000002
 06,0.,0.,0.00003119,0.,0.,0.00024860,0.,0.,-0.00371492,0.,0.,0.0215964
 1,-0.00012670,0.00006003,0.,-0.00007079,-0.00003167,0.,-0.00134028,0.0
 0020565,0.,-0.00106148,0.00015267,0.,0.00122979,0.00012533,0.,0.000849
 83,0.00088129,0.,0.00021570,-0.00101395,0.,-0.00005748,0.00090217,0.,-
 0.00011039,-0.00094447,0.,0.00000882,-0.00004407,0.,-0.00003056,-0.000
 05854,0.,-0.00073753,0.00074481,0.,0.00094738,0.00014027,0.,-0.0009569
 1,-0.00011399,0.,0.00005757,-0.00003186,0.,0.00003206,-0.00002513,0.,-
 0.00205993,0.00348159,0.,-0.00599228,-0.00271033,0.,-0.00676781,-0.016
 50679,0.,-0.24156908,-0.14246106,0.,0.00785284,0.00497672,0.,0.0014127
 3,-0.00276340,0.,-0.00019869,-0.00077779,0.,0.00086488,0.00010509,0.,-
 0.00000329,0.00000916,0.,0.00000220,0.00004168,0.,0.00000875,0.0000151
 2,0.,-0.00000931,0.00000364,0.,-0.00000395,-0.00000277,0.,-0.00001567,
 0.00000539,0.,0.00000197,-0.00000916,0.,0.00000079,-0.00001865,0.,0.24
 759812,-0.00008137,-0.00004436,0.,0.00005436,-0.00006593,0.,-0.0005186
 9,-0.00005513,0.,-0.00038967,0.00012570,0.,0.00030212,0.00003204,0.,0.
 00025007,0.00022469,0.,-0.00003693,-0.00023073,0.,-0.00002933,0.000176
 21,0.,-0.00010013,-0.00015008,0.,0.00005875,0.00005521,0.,0.00005169,-
 0.00007543,0.,-0.00005946,0.00008689,0.,0.00001775,-0.00002416,0.,0.00
 001985,0.00000323,0.,-0.00007511,0.00008405,0.,-0.00004786,-0.00001352
 ,0.,0.00036938,-0.00535104,0.,0.00416574,-0.00007791,0.,0.00739185,0.0
 0972360,0.,-0.14032638,-0.16875658,0.,-0.02538357,-0.00672120,0.,-0.00
 012617,0.00066026,0.,-0.00180897,-0.00000011,0.,0.00018829,-0.00048860
 ,0.,-0.00000564,0.00000197,0.,0.00000303,0.00000220,0.,-0.00000094,0.0
 0000613,0.,-0.00000364,0.00000473,0.,-0.00000277,-0.00000437,0.,-0.000
 00564,-0.00000190,0.,0.00000564,-0.00000329,0.,-0.00002200,0.00000079,
 0.,0.15554933,0.17019712,0.,0.,0.00003423,0.,0.,-0.00006516,0.,0.,0.00
 006939,0.,0.,0.00003291,0.,0.,0.00000038,0.,0.,-0.00003366,0.,0.,0.000
 00447,0.,0.,-0.00001544,0.,0.,-0.00001136,0.,0.,0.00000701,0.,0.,-0.00
 001100,0.,0.,0.00004458,0.,0.,-0.00012328,0.,0.,0.00018813,0.,0.,-0.00
 017520,0.,0.,0.00002106,0.,0.,0.00726122,0.,0.,0.00459894,0.,0.,-0.002
 18075,0.,0.,-0.02888623,0.,0.,0.00176721,0.,0.,-0.00133223,0.,0.,0.001
 12104,0.,0.,-0.00083460,0.,0.,-0.00000206,0.,0.,0.00003119,0.,0.,0.000
 00500,0.,0.,0.00000249,0.,0.,0.00000173,0.,0.,0.00000078,0.,0.,-0.0000
 0206,0.,0.,0.00005135,0.,0.,0.02159641,0.00003206,0.00002513,0.,0.0000
 5757,0.00003186,0.,0.00086488,-0.00010509,0.,0.00094738,-0.00014027,0.
 ,-0.00095690,0.00011399,0.,-0.00073753,-0.00074481,0.,-0.00011039,0.00
 094447,0.,-0.00005748,-0.00090217,0.,0.00021570,0.00101395,0.,-0.00003
 056,0.00005854,0.,0.00000882,0.00004407,0.,0.00084983,-0.00088129,0.,-
 0.00106148,-0.00015267,0.,0.00122979,-0.00012533,0.,-0.00007079,0.0000
 3167,0.,-0.00012670,-0.00006003,0.,-0.00676781,0.01650679,0.,-0.005992
 28,0.00271033,0.,-0.00205993,-0.00348159,0.,0.00785284,-0.00497672,0.,
 -0.24156908,0.14246106,0.,-0.00019869,0.00077779,0.,0.00141273,0.00276
 340,0.,-0.00134028,-0.00020565,0.,0.00000079,0.00001865,0.,0.00000197,
 0.00000916,0.,-0.00001567,-0.00000539,0.,-0.00000395,0.00000277,0.,-0.
 00000931,-0.00000364,0.,0.00000875,-0.00001512,0.,0.00000220,-0.000041
 68,0.,-0.00000329,-0.00000916,0.,0.00002354,0.00074860,0.,0.24759812,0
 .00004786,-0.00001352,0.,0.00007511,0.00008405,0.,-0.00018829,-0.00048
 860,0.,-0.00001775,-0.00002416,0.,-0.00001985,0.00000324,0.,0.00005946
 ,0.00008689,0.,0.00010013,-0.00015008,0.,0.00002933,0.00017621,0.,0.00
 003693,-0.00023073,0.,-0.00005169,-0.00007543,0.,-0.00005875,0.0000552
 1,0.,-0.00025007,0.00022469,0.,0.00038967,0.00012570,0.,-0.00030213,0.
 00003204,0.,-0.00005436,-0.00006593,0.,0.00008137,-0.00004436,0.,-0.00
 739185,0.00972360,0.,-0.00416574,-0.00007791,0.,-0.00036938,-0.0053510
 4,0.,0.02538357,-0.00672120,0.,0.14032638,-0.16875658,0.,0.00180897,-0
 .00000011,0.,0.00012617,0.00066026,0.,0.00051869,-0.00005513,0.,0.0000
 2200,0.00000079,0.,-0.00000564,-0.00000329,0.,0.00000564,-0.00000190,0
 .,0.00000277,-0.00000437,0.,0.00000364,0.00000473,0.,0.00000094,0.0000
 0613,0.,-0.00000303,0.00000220,0.,0.00000564,0.00000197,0.,-0.00074860
 ,0.00077117,0.,-0.15554933,0.17019712,0.,0.,0.00002106,0.,0.,-0.000175
 20,0.,0.,-0.00083460,0.,0.,-0.00012328,0.,0.,0.00018813,0.,0.,0.000044
 58,0.,0.,-0.00001136,0.,0.,-0.00001544,0.,0.,0.00000447,0.,0.,-0.00001
 100,0.,0.,0.00000701,0.,0.,-0.00003366,0.,0.,0.00003291,0.,0.,0.000000
 38,0.,0.,-0.00006516,0.,0.,0.00003423,0.,0.,-0.00218075,0.,0.,0.004598
 94,0.,0.,0.00726122,0.,0.,0.00176721,0.,0.,-0.02888623,0.,0.,0.0011210
 4,0.,0.,-0.00133223,0.,0.,0.00006939,0.,0.,0.00005135,0.,0.,-0.0000020
 6,0.,0.,0.00000078,0.,0.,0.00000173,0.,0.,0.00000249,0.,0.,0.00000500,
 0.,0.,0.00003119,0.,0.,-0.00000206,0.,0.,-0.00371492,0.,0.,0.02159641,
 0.00038225,0.00045636,0.,0.00116757,-0.00060779,0.,-0.01247042,-0.0245
 2260,0.,0.00370735,-0.00243349,0.,-0.00924338,0.00383007,0.,-0.0037849
 6,-0.00292155,0.,-0.00063727,0.00423617,0.,-0.00002347,-0.00391577,0.,
 0.00069143,0.00422553,0.,-0.00008365,0.00022123,0.,0.00007300,0.000213
 05,0.,0.00342089,-0.00340736,0.,-0.00428163,-0.00072717,0.,0.00394328,
 -0.00003892,0.,-0.00018892,0.00011786,0.,-0.00026919,-0.00005844,0.,0.
 00113470,-0.00402769,0.,-0.00048468,0.00637821,0.,0.00888891,0.0033766
 7,0.,0.00060453,0.00077527,0.,0.00003409,-0.00061378,0.,-0.20010792,-0
 .13073467,0.,0.00349005,0.00367472,0.,-0.00431930,0.00069740,0.,0.0000
 4834,0.00008860,0.,-0.00013997,0.00095089,0.,-0.00024073,-0.00009598,0
 .,0.00000875,0.00000094,0.,-0.00001567,-0.00000564,0.,0.00004107,-0.00
 004841,0.,0.00000613,-0.00001512,0.,-0.00000190,0.00000539,0.,0.000009
 78,-0.00016626,0.,-0.00000465,-0.00001408,0.,0.20859194,-0.00061378,0.
 00003409,0.,0.00077527,0.00060453,0.,0.00337666,0.00888891,0.,-0.00402
 769,0.00113470,0.,0.00637821,-0.00048468,0.,0.00367472,0.00349005,0.,0
 .00069740,-0.00431930,0.,-0.00003892,0.00394328,0.,-0.00072717,-0.0042
 8163,0.,0.00011786,-0.00018892,0.,-0.00005844,-0.00026919,0.,-0.003407
 36,0.00342089,0.,0.00422553,0.00069143,0.,-0.00391577,-0.00002347,0.,0
 .00022123,-0.00008365,0.,0.00021305,0.00007300,0.,-0.00243349,0.003707
 35,0.,0.00383007,-0.00924338,0.,-0.02452260,-0.01247042,0.,-0.00060779
 ,0.00116757,0.,0.00045636,0.00038225,0.,-0.13073467,-0.20010792,0.,-0.
 00292155,-0.00378496,0.,0.00423617,-0.00063727,0.,-0.00001408,-0.00000
 465,0.,-0.00016626,0.00000978,0.,0.00009598,0.00005365,0.,-0.00001512,
 0.00000613,0.,0.00000539,-0.00000190,0.,-0.00004841,0.00004107,0.,0.00
 000094,0.00000875,0.,-0.00000564,-0.00001567,0.,0.00095089,-0.00013997
 ,0.,0.00008860,0.00004834,0.,0.14501042,0.20859194,0.,0.,0.00082826,0.
 ,0.,-0.00349617,0.,0.,0.00687784,0.,0.,-0.00238610,0.,0.,0.00804683,0.
 ,0.,-0.00101876,0.,0.,-0.00010836,0.,0.,0.00016098,0.,0.,-0.00010688,0
 .,0.,0.00003679,0.,0.,-0.00002603,0.,0.,0.00004376,0.,0.,-0.00010688,0
 .,0.,0.00016098,0.,0.,0.00003679,0.,0.,-0.00002603,0.,0.,-0.00238610,0
 .,0.,0.00804683,0.,0.,0.00687784,0.,0.,-0.00349617,0.,0.,0.00082826,0.
 ,0.,-0.04559368,0.,0.,-0.00101876,0.,0.,-0.00010836,0.,0.,0.00029984,0
 .,0.,0.00024860,0.,0.,0.00056758,0.,0.,0.00000500,0.,0.,0.00000078,0.,
 0.,-0.00000863,0.,0.,0.00000500,0.,0.,0.00000078,0.,0.,0.00024860,0.,0
 .,0.00029984,0.,0.,0.02569821,-0.00026919,0.00005844,0.,-0.00018892,-0
 .00011786,0.,-0.00431930,-0.00069740,0.,-0.00428163,0.00072717,0.,0.00
 394328,0.00003892,0.,0.00342089,0.00340736,0.,0.00069143,-0.00422553,0
 .,-0.00002347,0.00391577,0.,-0.00063727,-0.00423617,0.,0.00007300,-0.0
 0021305,0.,-0.00008365,-0.00022123,0.,-0.00378496,0.00292155,0.,0.0037
 0735,0.00243349,0.,-0.00924338,-0.00383007,0.,0.00116757,0.00060779,0.
 ,0.00038225,-0.00045636,0.,0.00888891,-0.00337667,0.,-0.00048468,-0.00
 637821,0.,0.00113470,0.00402769,0.,0.00003409,0.00061378,0.,0.00060453
 ,-0.00077527,0.,0.00349005,-0.00367472,0.,-0.20010792,0.13073467,0.,-0
 .01247042,0.02452260,0.,-0.00000190,-0.00000539,0.,0.00000613,0.000015
 12,0.,0.00004107,0.00004841,0.,-0.00001567,0.00000564,0.,0.00000875,-0
 .00000094,0.,-0.00024073,0.00009598,0.,-0.00013997,-0.00095089,0.,0.00
 004834,-0.00008860,0.,-0.00000465,0.00001408,0.,0.00000978,0.00016626,
 0.,0.00005365,-0.00009598,0.,0.20859194,-0.00021305,0.00007300,0.,-0.0
 0022123,-0.00008365,0.,-0.00423617,-0.00063727,0.,-0.00422553,0.000691
 43,0.,0.00391577,-0.00002347,0.,0.00340736,0.00342089,0.,0.00072717,-0
 .00428163,0.,0.00003892,0.00394328,0.,-0.00069740,-0.00431930,0.,0.000
 05844,-0.00026919,0.,-0.00011786,-0.00018892,0.,-0.00367472,0.00349005
 ,0.,0.00402769,0.00113470,0.,-0.00637821,-0.00048468,0.,-0.00077527,0.
 00060453,0.,0.00061378,0.00003409,0.,0.02452260,-0.01247042,0.,-0.0038
 3007,-0.00924338,0.,0.00243349,0.00370735,0.,-0.00045636,0.00038225,0.
 ,0.00060779,0.00116757,0.,0.00292155,-0.00378496,0.,0.13073467,-0.2001
 0792,0.,-0.00337666,0.00888891,0.,0.00000564,-0.00001567,0.,-0.0000009
 4,0.00000875,0.,0.00004841,0.00004107,0.,-0.00000539,-0.00000190,0.,0.
 00001512,0.00000613,0.,-0.00009598,0.00005365,0.,0.00016626,0.00000978
 ,0.,0.00001408,-0.00000465,0.,-0.00008860,0.00004834,0.,-0.00095089,-0
 .00013997,0.,0.00009598,-0.00024073,0.,-0.14501042,0.20859194,0.,0.,-0
 .00002603,0.,0.,0.00003679,0.,0.,-0.00010836,0.,0.,-0.00010688,0.,0.,0
 .00016098,0.,0.,0.00004376,0.,0.,-0.00010688,0.,0.,0.00016098,0.,0.,-0
 .00010836,0.,0.,-0.00002603,0.,0.,0.00003679,0.,0.,-0.00101876,0.,0.,-
 0.00238610,0.,0.,0.00804683,0.,0.,-0.00349617,0.,0.,0.00082826,0.,0.,0
 .00687784,0.,0.,0.00804683,0.,0.,-0.00238610,0.,0.,0.00082826,0.,0.,-0
 .00349617,0.,0.,-0.00101876,0.,0.,-0.04559368,0.,0.,0.00687784,0.,0.,0
 .00000078,0.,0.,0.00000500,0.,0.,-0.00000863,0.,0.,0.00000078,0.,0.,0.
 00000500,0.,0.,0.00056758,0.,0.,0.00024860,0.,0.,0.00029984,0.,0.,0.00
 029984,0.,0.,0.00024860,0.,0.,0.00056758,0.,0.,0.02569821\\-0.00000147
 ,-0.00008708,0.,0.00000147,-0.00008708,0.,-0.00002948,-0.00016466,0.,0
 .00002948,-0.00016466,0.,0.,0.00035870,0.,-0.00060700,0.00060700,0.,0.
 00016466,-0.00002948,0.,-0.00035870,0.,0.,0.00016466,0.00002948,0.,0.0
 0008708,0.00000147,0.,0.00008708,-0.00000147,0.,-0.00060700,-0.0006070
 0,0.,0.00002948,0.00016466,0.,0.,-0.00035870,0.,0.00000147,0.00008708,
 0.,-0.00000147,0.00008708,0.,-0.00016466,0.00002948,0.,0.00035870,0.,0
 .,-0.00016466,-0.00002948,0.,-0.00008708,0.00000147,0.,-0.00008708,-0.
 00000147,0.,0.00060700,0.00060700,0.,0.00060700,-0.00060700,0.,-0.0000
 2948,0.00016466,0.,-0.00015059,-0.00007191,0.,0.00015059,-0.00007191,0
 .,0.00004599,-0.00004599,0.,0.00007191,0.00015059,0.,0.00007191,-0.000
 15059,0.,0.00004599,0.00004599,0.,0.00015059,0.00007191,0.,-0.00015059
 ,0.00007191,0.,-0.00007191,0.00015059,0.,-0.00007191,-0.00015059,0.,-0
 .00004599,-0.00004599,0.,-0.00004599,0.00004599,0.\\\@


 SEEN ON A WALL AT THE UNIVERSITY OF ILLINOIS AT CHICAGO CIRCLE:

 TO DO IS TO BE  -- SOCRATES
 TO BE IS TO DO  -- SARTRE
 OO BE DO BE DO  -- SINATRA
 Job cpu time:  0 days  0 hours 18 minutes 43.0 seconds.
 File lengths (MBytes):  RWF=    255 Int=      0 D2E=      0 Chk=     11 Scr=      1
 Normal termination of Gaussian 09 at Mon Jan 22 17:51:05 2018.
