 Entering Gaussian System, Link 0=g09
 Input=Tetrabenzoporphyrin_rotated.inp
 Output=Tetrabenzoporphyrin_rotated.log
 Initial command:
 /usr/local/g09/l1.exe /home/g09scr/Gau-26974.inp -scrdir=/home/g09scr/
 Entering Link 1 = /usr/local/g09/l1.exe PID=     26976.
  
 Copyright (c) 1988,1990,1992,1993,1995,1998,2003,2009,2010,
            Gaussian, Inc.  All Rights Reserved.
  
 This is part of the Gaussian(R) 09 program.  It is based on
 the Gaussian(R) 03 system (copyright 2003, Gaussian, Inc.),
 the Gaussian(R) 98 system (copyright 1998, Gaussian, Inc.),
 the Gaussian(R) 94 system (copyright 1995, Gaussian, Inc.),
 the Gaussian 92(TM) system (copyright 1992, Gaussian, Inc.),
 the Gaussian 90(TM) system (copyright 1990, Gaussian, Inc.),
 the Gaussian 88(TM) system (copyright 1988, Gaussian, Inc.),
 the Gaussian 86(TM) system (copyright 1986, Carnegie Mellon
 University), and the Gaussian 82(TM) system (copyright 1983,
 Carnegie Mellon University). Gaussian is a federally registered
 trademark of Gaussian, Inc.
  
 This software contains proprietary and confidential information,
 including trade secrets, belonging to Gaussian, Inc.
  
 This software is provided under written license and may be
 used, copied, transmitted, or stored only in accord with that
 written license.
  
 The following legend is applicable only to US Government
 contracts under FAR:
  
                    RESTRICTED RIGHTS LEGEND
  
 Use, reproduction and disclosure by the US Government is
 subject to restrictions as set forth in subparagraphs (a)
 and (c) of the Commercial Computer Software - Restricted
 Rights clause in FAR 52.227-19.
  
 Gaussian, Inc.
 340 Quinnipiac St., Bldg. 40, Wallingford CT 06492
  
  
 ---------------------------------------------------------------
 Warning -- This program may not be used in any manner that
 competes with the business of Gaussian, Inc. or will provide
 assistance to any competitor of Gaussian, Inc.  The licensee
 of this program is prohibited from giving any competitor of
 Gaussian, Inc. access to this program.  By using this program,
 the user acknowledges that Gaussian, Inc. is engaged in the
 business of creating and licensing software in the field of
 computational chemistry and represents and warrants to the
 licensee that it is not a competitor of Gaussian, Inc. and that
 it will not use this program in any manner prohibited above.
 ---------------------------------------------------------------
  

 Cite this work as:
 Gaussian 09, Revision B.01,
 M. J. Frisch, G. W. Trucks, H. B. Schlegel, G. E. Scuseria, 
 M. A. Robb, J. R. Cheeseman, G. Scalmani, V. Barone, B. Mennucci, 
 G. A. Petersson, H. Nakatsuji, M. Caricato, X. Li, H. P. Hratchian, 
 A. F. Izmaylov, J. Bloino, G. Zheng, J. L. Sonnenberg, M. Hada, 
 M. Ehara, K. Toyota, R. Fukuda, J. Hasegawa, M. Ishida, T. Nakajima, 
 Y. Honda, O. Kitao, H. Nakai, T. Vreven, J. A. Montgomery, Jr., 
 J. E. Peralta, F. Ogliaro, M. Bearpark, J. J. Heyd, E. Brothers, 
 K. N. Kudin, V. N. Staroverov, T. Keith, R. Kobayashi, J. Normand, 
 K. Raghavachari, A. Rendell, J. C. Burant, S. S. Iyengar, J. Tomasi, 
 M. Cossi, N. Rega, J. M. Millam, M. Klene, J. E. Knox, J. B. Cross, 
 V. Bakken, C. Adamo, J. Jaramillo, R. Gomperts, R. E. Stratmann, 
 O. Yazyev, A. J. Austin, R. Cammi, C. Pomelli, J. W. Ochterski, 
 R. L. Martin, K. Morokuma, V. G. Zakrzewski, G. A. Voth, 
 P. Salvador, J. J. Dannenberg, S. Dapprich, A. D. Daniels, 
 O. Farkas, J. B. Foresman, J. V. Ortiz, J. Cioslowski, 
 and D. J. Fox, Gaussian, Inc., Wallingford CT, 2010.
 
 ******************************************
 Gaussian 09:  EM64L-G09RevB.01 12-Aug-2010
                23-Jan-2018 
 ******************************************
 %nproc=4
 Will use up to    4 processors via shared memory.
 %mem=60gb
 ----------------------------
 #B3LYP/6-31G* fopt test freq
 ----------------------------
 1/14=-1,18=20,19=15,26=3,38=1/1,3;
 2/9=110,12=2,14=103,17=6,18=5,40=1/2;
 3/5=1,6=6,7=1,11=2,16=1,25=1,30=1,71=1,74=-5/1,2,3;
 4//1;
 5/5=2,38=5/2;
 6/7=2,8=2,9=2,10=2,28=1/1;
 7//1,2,3,16;
 1/14=-1,18=20,19=15/3(2);
 2/9=110/2;
 99//99;
 2/9=110/2;
 3/5=1,6=6,7=1,11=2,16=1,25=1,30=1,71=1,74=-5/1,2,3;
 4/5=5,16=3/1;
 5/5=2,38=5/2;
 7//1,2,3,16;
 1/14=-1,18=20,19=15/3(-5);
 2/9=110/2;
 6/7=2,8=2,9=2,10=2,19=2,28=1/1;
 99/9=1/99;
 ----------------------------------------------------
 RotationSameMolecule/Tetrabenzoporphyrin_rotated.xyz
 ----------------------------------------------------
 Symbolic Z-matrix:
 Charge =  0 Multiplicity = 1
 C                    -4.30262   0.       -0.68532 
 C                    -4.30262  0.         0.68532 
 C                    -2.89957  0.         1.10343 
 C                    -2.89957   0.       -1.10343 
 N                    -2.11177   0.        0. 
 C                    -2.45081   0.       -2.45264 
 C                    -1.09559   0.       -2.88682 
 N                     0.        0.       -2.0873 
 C                     1.09559   0.       -2.88682 
 C                    -0.68678   0.00001  -4.21163 
 C                     0.68678   0.00001  -4.21163 
 C                     2.45081   0.       -2.45264 
 C                     2.89957   0.       -1.10343 
 N                     2.11177   0.        0. 
 C                     4.30262  0.         0.68532 
 C                     4.30262   0.       -0.68532 
 C                     1.09559  0.         2.88682 
 N                     0.       0.         2.0873 
 C                    -1.09559  0.         2.88682 
 C                    -0.68678  -0.00001   4.21163 
 C                     0.68678  -0.00001   4.21163 
 C                    -2.45081  0.         2.45264 
 C                     2.45081  0.         2.45264 
 C                     2.89957  0.         1.10343 
 C                    -5.4917    0.       -1.41501 
 C                    -5.4917   0.         1.41501 
 H                    -3.21793   0.       -3.21782 
 H                     0.        0.       -1.05966 
 C                    -1.4162    0.00001  -5.40436 
 C                     1.4162    0.00001  -5.40436 
 H                     3.21793   0.       -3.21782 
 C                     5.4917   0.         1.41501 
 C                     5.4917    0.       -1.41501 
 H                     0.       0.         1.05966 
 C                    -1.4162   -0.00001   5.40436 
 C                     1.4162   -0.00001   5.40436 
 H                    -3.21793  0.         3.21782 
 H                     3.21793  0.         3.21782 
 C                    -0.7058    0.00001  -6.61775 
 C                     0.7058    0.00001  -6.61775 
 C                     6.70585  0.         0.70591 
 C                     6.70585   0.       -0.70591 
 C                    -0.7058   -0.00001   6.61775 
 C                     0.7058   -0.00001   6.61775 
 C                    -6.70585   0.       -0.70591 
 C                    -6.70585  0.         0.70591 
 H                    -5.4868    0.       -2.49618 
 H                    -5.4868   0.         2.49618 
 H                    -2.49751   0.00001  -5.40652 
 H                     2.49751   0.00001  -5.40652 
 H                     5.4868   0.         2.49618 
 H                     5.4868    0.       -2.49618 
 H                    -2.49751  -0.00001   5.40652 
 H                     2.49751  -0.00001   5.40652 
 H                    -1.24413   0.00001  -7.55659 
 H                     1.24413   0.00001  -7.55659 
 H                     7.64419  0.         1.24462 
 H                     7.64419   0.       -1.24462 
 H                    -1.24413  -0.00001   7.55659 
 H                     1.24413  -0.00001   7.55659 
 H                    -7.64419   0.       -1.24462 
 H                    -7.64419  0.         1.24462 
 

 GradGradGradGradGradGradGradGradGradGradGradGradGradGradGradGradGradGrad
 Berny optimization.
 Initialization pass.
                           ----------------------------
                           !    Initial Parameters    !
                           ! (Angstroms and Degrees)  !
 --------------------------                            --------------------------
 ! Name  Definition              Value          Derivative Info.                !
 --------------------------------------------------------------------------------
 ! R1    R(1,2)                  1.3706         estimate D2E/DX2                !
 ! R2    R(1,4)                  1.464          estimate D2E/DX2                !
 ! R3    R(1,25)                 1.3951         estimate D2E/DX2                !
 ! R4    R(2,3)                  1.464          estimate D2E/DX2                !
 ! R5    R(2,26)                 1.3951         estimate D2E/DX2                !
 ! R6    R(3,5)                  1.3558         estimate D2E/DX2                !
 ! R7    R(3,22)                 1.4219         estimate D2E/DX2                !
 ! R8    R(4,5)                  1.3558         estimate D2E/DX2                !
 ! R9    R(4,6)                  1.4219         estimate D2E/DX2                !
 ! R10   R(6,7)                  1.4231         estimate D2E/DX2                !
 ! R11   R(6,27)                 1.0835         estimate D2E/DX2                !
 ! R12   R(7,8)                  1.3563         estimate D2E/DX2                !
 ! R13   R(7,10)                 1.3865         estimate D2E/DX2                !
 ! R14   R(8,9)                  1.3563         estimate D2E/DX2                !
 ! R15   R(8,28)                 1.0276         estimate D2E/DX2                !
 ! R16   R(9,11)                 1.3865         estimate D2E/DX2                !
 ! R17   R(9,12)                 1.4231         estimate D2E/DX2                !
 ! R18   R(10,11)                1.3736         estimate D2E/DX2                !
 ! R19   R(10,29)                1.3981         estimate D2E/DX2                !
 ! R20   R(11,30)                1.3981         estimate D2E/DX2                !
 ! R21   R(12,13)                1.4219         estimate D2E/DX2                !
 ! R22   R(12,31)                1.0835         estimate D2E/DX2                !
 ! R23   R(13,14)                1.3558         estimate D2E/DX2                !
 ! R24   R(13,16)                1.464          estimate D2E/DX2                !
 ! R25   R(14,24)                1.3558         estimate D2E/DX2                !
 ! R26   R(15,16)                1.3706         estimate D2E/DX2                !
 ! R27   R(15,24)                1.464          estimate D2E/DX2                !
 ! R28   R(15,32)                1.3951         estimate D2E/DX2                !
 ! R29   R(16,33)                1.3951         estimate D2E/DX2                !
 ! R30   R(17,18)                1.3563         estimate D2E/DX2                !
 ! R31   R(17,21)                1.3865         estimate D2E/DX2                !
 ! R32   R(17,23)                1.4231         estimate D2E/DX2                !
 ! R33   R(18,19)                1.3563         estimate D2E/DX2                !
 ! R34   R(18,34)                1.0276         estimate D2E/DX2                !
 ! R35   R(19,20)                1.3865         estimate D2E/DX2                !
 ! R36   R(19,22)                1.4231         estimate D2E/DX2                !
 ! R37   R(20,21)                1.3736         estimate D2E/DX2                !
 ! R38   R(20,35)                1.3981         estimate D2E/DX2                !
 ! R39   R(21,36)                1.3981         estimate D2E/DX2                !
 ! R40   R(22,37)                1.0835         estimate D2E/DX2                !
 ! R41   R(23,24)                1.4219         estimate D2E/DX2                !
 ! R42   R(23,38)                1.0835         estimate D2E/DX2                !
 ! R43   R(25,45)                1.4061         estimate D2E/DX2                !
 ! R44   R(25,47)                1.0812         estimate D2E/DX2                !
 ! R45   R(26,46)                1.4061         estimate D2E/DX2                !
 ! R46   R(26,48)                1.0812         estimate D2E/DX2                !
 ! R47   R(29,39)                1.4061         estimate D2E/DX2                !
 ! R48   R(29,49)                1.0813         estimate D2E/DX2                !
 ! R49   R(30,40)                1.4061         estimate D2E/DX2                !
 ! R50   R(30,50)                1.0813         estimate D2E/DX2                !
 ! R51   R(32,41)                1.4061         estimate D2E/DX2                !
 ! R52   R(32,51)                1.0812         estimate D2E/DX2                !
 ! R53   R(33,42)                1.4061         estimate D2E/DX2                !
 ! R54   R(33,52)                1.0812         estimate D2E/DX2                !
 ! R55   R(35,43)                1.4061         estimate D2E/DX2                !
 ! R56   R(35,53)                1.0813         estimate D2E/DX2                !
 ! R57   R(36,44)                1.4061         estimate D2E/DX2                !
 ! R58   R(36,54)                1.0813         estimate D2E/DX2                !
 ! R59   R(39,40)                1.4116         estimate D2E/DX2                !
 ! R60   R(39,55)                1.0822         estimate D2E/DX2                !
 ! R61   R(40,56)                1.0822         estimate D2E/DX2                !
 ! R62   R(41,42)                1.4118         estimate D2E/DX2                !
 ! R63   R(41,57)                1.082          estimate D2E/DX2                !
 ! R64   R(42,58)                1.082          estimate D2E/DX2                !
 ! R65   R(43,44)                1.4116         estimate D2E/DX2                !
 ! R66   R(43,59)                1.0822         estimate D2E/DX2                !
 ! R67   R(44,60)                1.0822         estimate D2E/DX2                !
 ! R68   R(45,46)                1.4118         estimate D2E/DX2                !
 ! R69   R(45,61)                1.082          estimate D2E/DX2                !
 ! R70   R(46,62)                1.082          estimate D2E/DX2                !
 ! A1    A(2,1,4)              106.5941         estimate D2E/DX2                !
 ! A2    A(2,1,25)             121.5357         estimate D2E/DX2                !
 ! A3    A(4,1,25)             131.8702         estimate D2E/DX2                !
 ! A4    A(1,2,3)              106.5941         estimate D2E/DX2                !
 ! A5    A(1,2,26)             121.5357         estimate D2E/DX2                !
 ! A6    A(3,2,26)             131.8702         estimate D2E/DX2                !
 ! A7    A(2,3,5)              108.9311         estimate D2E/DX2                !
 ! A8    A(2,3,22)             124.9917         estimate D2E/DX2                !
 ! A9    A(5,3,22)             126.0772         estimate D2E/DX2                !
 ! A10   A(1,4,5)              108.9311         estimate D2E/DX2                !
 ! A11   A(1,4,6)              124.9917         estimate D2E/DX2                !
 ! A12   A(5,4,6)              126.0772         estimate D2E/DX2                !
 ! A13   A(3,5,4)              108.9497         estimate D2E/DX2                !
 ! A14   A(4,6,7)              126.1618         estimate D2E/DX2                !
 ! A15   A(4,6,27)             116.5298         estimate D2E/DX2                !
 ! A16   A(7,6,27)             117.3083         estimate D2E/DX2                !
 ! A17   A(6,7,8)              126.1152         estimate D2E/DX2                !
 ! A18   A(6,7,10)             124.9134         estimate D2E/DX2                !
 ! A19   A(8,7,10)             108.9714         estimate D2E/DX2                !
 ! A20   A(7,8,9)              107.7589         estimate D2E/DX2                !
 ! A21   A(7,8,28)             126.1205         estimate D2E/DX2                !
 ! A22   A(9,8,28)             126.1205         estimate D2E/DX2                !
 ! A23   A(8,9,11)             108.9714         estimate D2E/DX2                !
 ! A24   A(8,9,12)             126.1152         estimate D2E/DX2                !
 ! A25   A(11,9,12)            124.9134         estimate D2E/DX2                !
 ! A26   A(7,10,11)            107.1492         estimate D2E/DX2                !
 ! A27   A(7,10,29)            131.4027         estimate D2E/DX2                !
 ! A28   A(11,10,29)           121.4481         estimate D2E/DX2                !
 ! A29   A(9,11,10)            107.1492         estimate D2E/DX2                !
 ! A30   A(9,11,30)            131.4027         estimate D2E/DX2                !
 ! A31   A(10,11,30)           121.4481         estimate D2E/DX2                !
 ! A32   A(9,12,13)            126.1618         estimate D2E/DX2                !
 ! A33   A(9,12,31)            117.3083         estimate D2E/DX2                !
 ! A34   A(13,12,31)           116.5298         estimate D2E/DX2                !
 ! A35   A(12,13,14)           126.0772         estimate D2E/DX2                !
 ! A36   A(12,13,16)           124.9917         estimate D2E/DX2                !
 ! A37   A(14,13,16)           108.9311         estimate D2E/DX2                !
 ! A38   A(13,14,24)           108.9497         estimate D2E/DX2                !
 ! A39   A(16,15,24)           106.5941         estimate D2E/DX2                !
 ! A40   A(16,15,32)           121.5357         estimate D2E/DX2                !
 ! A41   A(24,15,32)           131.8702         estimate D2E/DX2                !
 ! A42   A(13,16,15)           106.5941         estimate D2E/DX2                !
 ! A43   A(13,16,33)           131.8702         estimate D2E/DX2                !
 ! A44   A(15,16,33)           121.5357         estimate D2E/DX2                !
 ! A45   A(18,17,21)           108.9714         estimate D2E/DX2                !
 ! A46   A(18,17,23)           126.1152         estimate D2E/DX2                !
 ! A47   A(21,17,23)           124.9134         estimate D2E/DX2                !
 ! A48   A(17,18,19)           107.7589         estimate D2E/DX2                !
 ! A49   A(17,18,34)           126.1205         estimate D2E/DX2                !
 ! A50   A(19,18,34)           126.1205         estimate D2E/DX2                !
 ! A51   A(18,19,20)           108.9714         estimate D2E/DX2                !
 ! A52   A(18,19,22)           126.1152         estimate D2E/DX2                !
 ! A53   A(20,19,22)           124.9134         estimate D2E/DX2                !
 ! A54   A(19,20,21)           107.1492         estimate D2E/DX2                !
 ! A55   A(19,20,35)           131.4027         estimate D2E/DX2                !
 ! A56   A(21,20,35)           121.4481         estimate D2E/DX2                !
 ! A57   A(17,21,20)           107.1492         estimate D2E/DX2                !
 ! A58   A(17,21,36)           131.4027         estimate D2E/DX2                !
 ! A59   A(20,21,36)           121.4481         estimate D2E/DX2                !
 ! A60   A(3,22,19)            126.1618         estimate D2E/DX2                !
 ! A61   A(3,22,37)            116.5298         estimate D2E/DX2                !
 ! A62   A(19,22,37)           117.3083         estimate D2E/DX2                !
 ! A63   A(17,23,24)           126.1618         estimate D2E/DX2                !
 ! A64   A(17,23,38)           117.3083         estimate D2E/DX2                !
 ! A65   A(24,23,38)           116.5298         estimate D2E/DX2                !
 ! A66   A(14,24,15)           108.9311         estimate D2E/DX2                !
 ! A67   A(14,24,23)           126.0772         estimate D2E/DX2                !
 ! A68   A(15,24,23)           124.9917         estimate D2E/DX2                !
 ! A69   A(1,25,45)            118.178          estimate D2E/DX2                !
 ! A70   A(1,25,47)            121.2761         estimate D2E/DX2                !
 ! A71   A(45,25,47)           120.5459         estimate D2E/DX2                !
 ! A72   A(2,26,46)            118.178          estimate D2E/DX2                !
 ! A73   A(2,26,48)            121.2761         estimate D2E/DX2                !
 ! A74   A(46,26,48)           120.5459         estimate D2E/DX2                !
 ! A75   A(10,29,39)           118.2043         estimate D2E/DX2                !
 ! A76   A(10,29,49)           121.5625         estimate D2E/DX2                !
 ! A77   A(39,29,49)           120.2331         estimate D2E/DX2                !
 ! A78   A(11,30,40)           118.2043         estimate D2E/DX2                !
 ! A79   A(11,30,50)           121.5625         estimate D2E/DX2                !
 ! A80   A(40,30,50)           120.2331         estimate D2E/DX2                !
 ! A81   A(15,32,41)           118.178          estimate D2E/DX2                !
 ! A82   A(15,32,51)           121.2761         estimate D2E/DX2                !
 ! A83   A(41,32,51)           120.5459         estimate D2E/DX2                !
 ! A84   A(16,33,42)           118.178          estimate D2E/DX2                !
 ! A85   A(16,33,52)           121.2761         estimate D2E/DX2                !
 ! A86   A(42,33,52)           120.5459         estimate D2E/DX2                !
 ! A87   A(20,35,43)           118.2043         estimate D2E/DX2                !
 ! A88   A(20,35,53)           121.5625         estimate D2E/DX2                !
 ! A89   A(43,35,53)           120.2331         estimate D2E/DX2                !
 ! A90   A(21,36,44)           118.2043         estimate D2E/DX2                !
 ! A91   A(21,36,54)           121.5625         estimate D2E/DX2                !
 ! A92   A(44,36,54)           120.2331         estimate D2E/DX2                !
 ! A93   A(29,39,40)           120.3476         estimate D2E/DX2                !
 ! A94   A(29,39,55)           119.8225         estimate D2E/DX2                !
 ! A95   A(40,39,55)           119.8299         estimate D2E/DX2                !
 ! A96   A(30,40,39)           120.3476         estimate D2E/DX2                !
 ! A97   A(30,40,56)           119.8225         estimate D2E/DX2                !
 ! A98   A(39,40,56)           119.8299         estimate D2E/DX2                !
 ! A99   A(32,41,42)           120.2862         estimate D2E/DX2                !
 ! A100  A(32,41,57)           119.8532         estimate D2E/DX2                !
 ! A101  A(42,41,57)           119.8605         estimate D2E/DX2                !
 ! A102  A(33,42,41)           120.2862         estimate D2E/DX2                !
 ! A103  A(33,42,58)           119.8532         estimate D2E/DX2                !
 ! A104  A(41,42,58)           119.8605         estimate D2E/DX2                !
 ! A105  A(35,43,44)           120.3476         estimate D2E/DX2                !
 ! A106  A(35,43,59)           119.8225         estimate D2E/DX2                !
 ! A107  A(44,43,59)           119.8299         estimate D2E/DX2                !
 ! A108  A(36,44,43)           120.3476         estimate D2E/DX2                !
 ! A109  A(36,44,60)           119.8225         estimate D2E/DX2                !
 ! A110  A(43,44,60)           119.8299         estimate D2E/DX2                !
 ! A111  A(25,45,46)           120.2862         estimate D2E/DX2                !
 ! A112  A(25,45,61)           119.8532         estimate D2E/DX2                !
 ! A113  A(46,45,61)           119.8605         estimate D2E/DX2                !
 ! A114  A(26,46,45)           120.2862         estimate D2E/DX2                !
 ! A115  A(26,46,62)           119.8532         estimate D2E/DX2                !
 ! A116  A(45,46,62)           119.8605         estimate D2E/DX2                !
 ! D1    D(4,1,2,3)              0.0            estimate D2E/DX2                !
 ! D2    D(4,1,2,26)           180.0            estimate D2E/DX2                !
 ! D3    D(25,1,2,3)           180.0            estimate D2E/DX2                !
 ! D4    D(25,1,2,26)            0.0            estimate D2E/DX2                !
 ! D5    D(2,1,4,5)              0.0            estimate D2E/DX2                !
 ! D6    D(2,1,4,6)            180.0            estimate D2E/DX2                !
 ! D7    D(25,1,4,5)           180.0            estimate D2E/DX2                !
 ! D8    D(25,1,4,6)             0.0            estimate D2E/DX2                !
 ! D9    D(2,1,25,45)            0.0            estimate D2E/DX2                !
 ! D10   D(2,1,25,47)         -180.0            estimate D2E/DX2                !
 ! D11   D(4,1,25,45)         -180.0            estimate D2E/DX2                !
 ! D12   D(4,1,25,47)            0.0            estimate D2E/DX2                !
 ! D13   D(1,2,3,5)              0.0            estimate D2E/DX2                !
 ! D14   D(1,2,3,22)           180.0            estimate D2E/DX2                !
 ! D15   D(26,2,3,5)           180.0            estimate D2E/DX2                !
 ! D16   D(26,2,3,22)            0.0            estimate D2E/DX2                !
 ! D17   D(1,2,26,46)            0.0            estimate D2E/DX2                !
 ! D18   D(1,2,26,48)         -180.0            estimate D2E/DX2                !
 ! D19   D(3,2,26,46)         -180.0            estimate D2E/DX2                !
 ! D20   D(3,2,26,48)            0.0            estimate D2E/DX2                !
 ! D21   D(2,3,5,4)              0.0            estimate D2E/DX2                !
 ! D22   D(22,3,5,4)          -180.0            estimate D2E/DX2                !
 ! D23   D(2,3,22,19)          180.0            estimate D2E/DX2                !
 ! D24   D(2,3,22,37)            0.0            estimate D2E/DX2                !
 ! D25   D(5,3,22,19)            0.0            estimate D2E/DX2                !
 ! D26   D(5,3,22,37)          180.0            estimate D2E/DX2                !
 ! D27   D(1,4,5,3)              0.0            estimate D2E/DX2                !
 ! D28   D(6,4,5,3)           -180.0            estimate D2E/DX2                !
 ! D29   D(1,4,6,7)            180.0            estimate D2E/DX2                !
 ! D30   D(1,4,6,27)             0.0            estimate D2E/DX2                !
 ! D31   D(5,4,6,7)              0.0            estimate D2E/DX2                !
 ! D32   D(5,4,6,27)           180.0            estimate D2E/DX2                !
 ! D33   D(4,6,7,8)              0.0            estimate D2E/DX2                !
 ! D34   D(4,6,7,10)           180.0            estimate D2E/DX2                !
 ! D35   D(27,6,7,8)           180.0            estimate D2E/DX2                !
 ! D36   D(27,6,7,10)            0.0            estimate D2E/DX2                !
 ! D37   D(6,7,8,9)            180.0            estimate D2E/DX2                !
 ! D38   D(6,7,8,28)             0.0            estimate D2E/DX2                !
 ! D39   D(10,7,8,9)             0.0            estimate D2E/DX2                !
 ! D40   D(10,7,8,28)          180.0            estimate D2E/DX2                !
 ! D41   D(6,7,10,11)         -180.0            estimate D2E/DX2                !
 ! D42   D(6,7,10,29)            0.0            estimate D2E/DX2                !
 ! D43   D(8,7,10,11)            0.0            estimate D2E/DX2                !
 ! D44   D(8,7,10,29)          180.0            estimate D2E/DX2                !
 ! D45   D(7,8,9,11)             0.0            estimate D2E/DX2                !
 ! D46   D(7,8,9,12)           180.0            estimate D2E/DX2                !
 ! D47   D(28,8,9,11)          180.0            estimate D2E/DX2                !
 ! D48   D(28,8,9,12)            0.0            estimate D2E/DX2                !
 ! D49   D(8,9,11,10)            0.0            estimate D2E/DX2                !
 ! D50   D(8,9,11,30)          180.0            estimate D2E/DX2                !
 ! D51   D(12,9,11,10)         180.0            estimate D2E/DX2                !
 ! D52   D(12,9,11,30)           0.0            estimate D2E/DX2                !
 ! D53   D(8,9,12,13)            0.0            estimate D2E/DX2                !
 ! D54   D(8,9,12,31)          180.0            estimate D2E/DX2                !
 ! D55   D(11,9,12,13)         180.0            estimate D2E/DX2                !
 ! D56   D(11,9,12,31)           0.0            estimate D2E/DX2                !
 ! D57   D(7,10,11,9)            0.0            estimate D2E/DX2                !
 ! D58   D(7,10,11,30)         180.0            estimate D2E/DX2                !
 ! D59   D(29,10,11,9)         180.0            estimate D2E/DX2                !
 ! D60   D(29,10,11,30)          0.0            estimate D2E/DX2                !
 ! D61   D(7,10,29,39)         180.0            estimate D2E/DX2                !
 ! D62   D(7,10,29,49)           0.0            estimate D2E/DX2                !
 ! D63   D(11,10,29,39)          0.0            estimate D2E/DX2                !
 ! D64   D(11,10,29,49)        180.0            estimate D2E/DX2                !
 ! D65   D(9,11,30,40)        -180.0            estimate D2E/DX2                !
 ! D66   D(9,11,30,50)           0.0            estimate D2E/DX2                !
 ! D67   D(10,11,30,40)          0.0            estimate D2E/DX2                !
 ! D68   D(10,11,30,50)        180.0            estimate D2E/DX2                !
 ! D69   D(9,12,13,14)           0.0            estimate D2E/DX2                !
 ! D70   D(9,12,13,16)         180.0            estimate D2E/DX2                !
 ! D71   D(31,12,13,14)       -180.0            estimate D2E/DX2                !
 ! D72   D(31,12,13,16)          0.0            estimate D2E/DX2                !
 ! D73   D(12,13,14,24)        180.0            estimate D2E/DX2                !
 ! D74   D(16,13,14,24)          0.0            estimate D2E/DX2                !
 ! D75   D(12,13,16,15)        180.0            estimate D2E/DX2                !
 ! D76   D(12,13,16,33)          0.0            estimate D2E/DX2                !
 ! D77   D(14,13,16,15)          0.0            estimate D2E/DX2                !
 ! D78   D(14,13,16,33)        180.0            estimate D2E/DX2                !
 ! D79   D(13,14,24,15)          0.0            estimate D2E/DX2                !
 ! D80   D(13,14,24,23)        180.0            estimate D2E/DX2                !
 ! D81   D(24,15,16,13)          0.0            estimate D2E/DX2                !
 ! D82   D(24,15,16,33)        180.0            estimate D2E/DX2                !
 ! D83   D(32,15,16,13)        180.0            estimate D2E/DX2                !
 ! D84   D(32,15,16,33)          0.0            estimate D2E/DX2                !
 ! D85   D(16,15,24,14)          0.0            estimate D2E/DX2                !
 ! D86   D(16,15,24,23)        180.0            estimate D2E/DX2                !
 ! D87   D(32,15,24,14)        180.0            estimate D2E/DX2                !
 ! D88   D(32,15,24,23)          0.0            estimate D2E/DX2                !
 ! D89   D(16,15,32,41)          0.0            estimate D2E/DX2                !
 ! D90   D(16,15,32,51)        180.0            estimate D2E/DX2                !
 ! D91   D(24,15,32,41)        180.0            estimate D2E/DX2                !
 ! D92   D(24,15,32,51)          0.0            estimate D2E/DX2                !
 ! D93   D(13,16,33,42)        180.0            estimate D2E/DX2                !
 ! D94   D(13,16,33,52)          0.0            estimate D2E/DX2                !
 ! D95   D(15,16,33,42)          0.0            estimate D2E/DX2                !
 ! D96   D(15,16,33,52)        180.0            estimate D2E/DX2                !
 ! D97   D(21,17,18,19)          0.0            estimate D2E/DX2                !
 ! D98   D(21,17,18,34)        180.0            estimate D2E/DX2                !
 ! D99   D(23,17,18,19)        180.0            estimate D2E/DX2                !
 ! D100  D(23,17,18,34)          0.0            estimate D2E/DX2                !
 ! D101  D(18,17,21,20)          0.0            estimate D2E/DX2                !
 ! D102  D(18,17,21,36)        180.0            estimate D2E/DX2                !
 ! D103  D(23,17,21,20)        180.0            estimate D2E/DX2                !
 ! D104  D(23,17,21,36)          0.0            estimate D2E/DX2                !
 ! D105  D(18,17,23,24)          0.0            estimate D2E/DX2                !
 ! D106  D(18,17,23,38)        180.0            estimate D2E/DX2                !
 ! D107  D(21,17,23,24)        180.0            estimate D2E/DX2                !
 ! D108  D(21,17,23,38)          0.0            estimate D2E/DX2                !
 ! D109  D(17,18,19,20)          0.0            estimate D2E/DX2                !
 ! D110  D(17,18,19,22)        180.0            estimate D2E/DX2                !
 ! D111  D(34,18,19,20)        180.0            estimate D2E/DX2                !
 ! D112  D(34,18,19,22)          0.0            estimate D2E/DX2                !
 ! D113  D(18,19,20,21)          0.0            estimate D2E/DX2                !
 ! D114  D(18,19,20,35)        180.0            estimate D2E/DX2                !
 ! D115  D(22,19,20,21)       -180.0            estimate D2E/DX2                !
 ! D116  D(22,19,20,35)          0.0            estimate D2E/DX2                !
 ! D117  D(18,19,22,3)           0.0            estimate D2E/DX2                !
 ! D118  D(18,19,22,37)        180.0            estimate D2E/DX2                !
 ! D119  D(20,19,22,3)         180.0            estimate D2E/DX2                !
 ! D120  D(20,19,22,37)          0.0            estimate D2E/DX2                !
 ! D121  D(19,20,21,17)          0.0            estimate D2E/DX2                !
 ! D122  D(19,20,21,36)        180.0            estimate D2E/DX2                !
 ! D123  D(35,20,21,17)        180.0            estimate D2E/DX2                !
 ! D124  D(35,20,21,36)          0.0            estimate D2E/DX2                !
 ! D125  D(19,20,35,43)        180.0            estimate D2E/DX2                !
 ! D126  D(19,20,35,53)          0.0            estimate D2E/DX2                !
 ! D127  D(21,20,35,43)          0.0            estimate D2E/DX2                !
 ! D128  D(21,20,35,53)        180.0            estimate D2E/DX2                !
 ! D129  D(17,21,36,44)       -180.0            estimate D2E/DX2                !
 ! D130  D(17,21,36,54)          0.0            estimate D2E/DX2                !
 ! D131  D(20,21,36,44)          0.0            estimate D2E/DX2                !
 ! D132  D(20,21,36,54)        180.0            estimate D2E/DX2                !
 ! D133  D(17,23,24,14)          0.0            estimate D2E/DX2                !
 ! D134  D(17,23,24,15)        180.0            estimate D2E/DX2                !
 ! D135  D(38,23,24,14)       -180.0            estimate D2E/DX2                !
 ! D136  D(38,23,24,15)          0.0            estimate D2E/DX2                !
 ! D137  D(1,25,45,46)           0.0            estimate D2E/DX2                !
 ! D138  D(1,25,45,61)         180.0            estimate D2E/DX2                !
 ! D139  D(47,25,45,46)        180.0            estimate D2E/DX2                !
 ! D140  D(47,25,45,61)          0.0            estimate D2E/DX2                !
 ! D141  D(2,26,46,45)           0.0            estimate D2E/DX2                !
 ! D142  D(2,26,46,62)         180.0            estimate D2E/DX2                !
 ! D143  D(48,26,46,45)        180.0            estimate D2E/DX2                !
 ! D144  D(48,26,46,62)          0.0            estimate D2E/DX2                !
 ! D145  D(10,29,39,40)          0.0            estimate D2E/DX2                !
 ! D146  D(10,29,39,55)        180.0            estimate D2E/DX2                !
 ! D147  D(49,29,39,40)       -180.0            estimate D2E/DX2                !
 ! D148  D(49,29,39,55)          0.0            estimate D2E/DX2                !
 ! D149  D(11,30,40,39)          0.0            estimate D2E/DX2                !
 ! D150  D(11,30,40,56)        180.0            estimate D2E/DX2                !
 ! D151  D(50,30,40,39)        180.0            estimate D2E/DX2                !
 ! D152  D(50,30,40,56)          0.0            estimate D2E/DX2                !
 ! D153  D(15,32,41,42)          0.0            estimate D2E/DX2                !
 ! D154  D(15,32,41,57)       -180.0            estimate D2E/DX2                !
 ! D155  D(51,32,41,42)        180.0            estimate D2E/DX2                !
 ! D156  D(51,32,41,57)          0.0            estimate D2E/DX2                !
 ! D157  D(16,33,42,41)          0.0            estimate D2E/DX2                !
 ! D158  D(16,33,42,58)       -180.0            estimate D2E/DX2                !
 ! D159  D(52,33,42,41)        180.0            estimate D2E/DX2                !
 ! D160  D(52,33,42,58)          0.0            estimate D2E/DX2                !
 ! D161  D(20,35,43,44)          0.0            estimate D2E/DX2                !
 ! D162  D(20,35,43,59)        180.0            estimate D2E/DX2                !
 ! D163  D(53,35,43,44)       -180.0            estimate D2E/DX2                !
 ! D164  D(53,35,43,59)          0.0            estimate D2E/DX2                !
 ! D165  D(21,36,44,43)          0.0            estimate D2E/DX2                !
 ! D166  D(21,36,44,60)        180.0            estimate D2E/DX2                !
 ! D167  D(54,36,44,43)        180.0            estimate D2E/DX2                !
 ! D168  D(54,36,44,60)          0.0            estimate D2E/DX2                !
 ! D169  D(29,39,40,30)          0.0            estimate D2E/DX2                !
 ! D170  D(29,39,40,56)        180.0            estimate D2E/DX2                !
 ! D171  D(55,39,40,30)        180.0            estimate D2E/DX2                !
 ! D172  D(55,39,40,56)          0.0            estimate D2E/DX2                !
 ! D173  D(32,41,42,33)          0.0            estimate D2E/DX2                !
 ! D174  D(32,41,42,58)        180.0            estimate D2E/DX2                !
 ! D175  D(57,41,42,33)        180.0            estimate D2E/DX2                !
 ! D176  D(57,41,42,58)          0.0            estimate D2E/DX2                !
 ! D177  D(35,43,44,36)          0.0            estimate D2E/DX2                !
 ! D178  D(35,43,44,60)        180.0            estimate D2E/DX2                !
 ! D179  D(59,43,44,36)        180.0            estimate D2E/DX2                !
 ! D180  D(59,43,44,60)          0.0            estimate D2E/DX2                !
 ! D181  D(25,45,46,26)          0.0            estimate D2E/DX2                !
 ! D182  D(25,45,46,62)        180.0            estimate D2E/DX2                !
 ! D183  D(61,45,46,26)        180.0            estimate D2E/DX2                !
 ! D184  D(61,45,46,62)          0.0            estimate D2E/DX2                !
 --------------------------------------------------------------------------------
 Trust Radius=3.00D-01 FncErr=1.00D-07 GrdErr=1.00D-06
 Number of steps in this run=    372 maximum allowed number of steps=    372.
 GradGradGradGradGradGradGradGradGradGradGradGradGradGradGradGradGradGrad

 Stoichiometry    C36H22N4
 Framework group  D2H[C2'(N.N),C2"(NH.HN),SG(C36H20)]
 Deg. of freedom    31
 Full point group                 D2H     NOp   8
 Largest Abelian subgroup         D2H     NOp   8
 Largest concise Abelian subgroup D2      NOp   4
                         Standard orientation:                         
 ---------------------------------------------------------------------
 Center     Atomic      Atomic             Coordinates (Angstroms)
 Number     Number       Type             X           Y           Z
 ---------------------------------------------------------------------
      1          6           0        0.000000    4.302620    0.685320
      2          6           0        0.000000    4.302620   -0.685320
      3          6           0        0.000000    2.899570   -1.103430
      4          6           0        0.000000    2.899570    1.103430
      5          7           0        0.000000    2.111770    0.000000
      6          6           0        0.000000    2.450810    2.452640
      7          6           0        0.000000    1.095590    2.886820
      8          7           0        0.000000    0.000000    2.087300
      9          6           0        0.000000   -1.095590    2.886820
     10          6           0        0.000000    0.686780    4.211630
     11          6           0        0.000000   -0.686780    4.211630
     12          6           0        0.000000   -2.450810    2.452640
     13          6           0        0.000000   -2.899570    1.103430
     14          7           0        0.000000   -2.111770    0.000000
     15          6           0        0.000000   -4.302620   -0.685320
     16          6           0        0.000000   -4.302620    0.685320
     17          6           0        0.000000   -1.095590   -2.886820
     18          7           0        0.000000    0.000000   -2.087300
     19          6           0        0.000000    1.095590   -2.886820
     20          6           0        0.000000    0.686780   -4.211630
     21          6           0        0.000000   -0.686780   -4.211630
     22          6           0        0.000000    2.450810   -2.452640
     23          6           0        0.000000   -2.450810   -2.452640
     24          6           0        0.000000   -2.899570   -1.103430
     25          6           0        0.000000    5.491700    1.415010
     26          6           0        0.000000    5.491700   -1.415010
     27          1           0        0.000000    3.217930    3.217820
     28          1           0        0.000000    0.000000    1.059660
     29          6           0        0.000000    1.416200    5.404360
     30          6           0        0.000000   -1.416200    5.404360
     31          1           0        0.000000   -3.217930    3.217820
     32          6           0        0.000000   -5.491700   -1.415010
     33          6           0        0.000000   -5.491700    1.415010
     34          1           0        0.000000    0.000000   -1.059660
     35          6           0        0.000000    1.416200   -5.404360
     36          6           0        0.000000   -1.416200   -5.404360
     37          1           0        0.000000    3.217930   -3.217820
     38          1           0        0.000000   -3.217930   -3.217820
     39          6           0        0.000000    0.705800    6.617750
     40          6           0        0.000000   -0.705800    6.617750
     41          6           0        0.000000   -6.705850   -0.705910
     42          6           0        0.000000   -6.705850    0.705910
     43          6           0        0.000000    0.705800   -6.617750
     44          6           0        0.000000   -0.705800   -6.617750
     45          6           0        0.000000    6.705850    0.705910
     46          6           0        0.000000    6.705850   -0.705910
     47          1           0        0.000000    5.486800    2.496180
     48          1           0        0.000000    5.486800   -2.496180
     49          1           0        0.000000    2.497510    5.406520
     50          1           0        0.000000   -2.497510    5.406520
     51          1           0        0.000000   -5.486800   -2.496180
     52          1           0        0.000000   -5.486800    2.496180
     53          1           0        0.000000    2.497510   -5.406520
     54          1           0        0.000000   -2.497510   -5.406520
     55          1           0        0.000000    1.244130    7.556590
     56          1           0        0.000000   -1.244130    7.556590
     57          1           0        0.000000   -7.644190   -1.244620
     58          1           0        0.000000   -7.644190    1.244620
     59          1           0        0.000000    1.244130   -7.556590
     60          1           0        0.000000   -1.244130   -7.556590
     61          1           0        0.000000    7.644190    1.244620
     62          1           0        0.000000    7.644190   -1.244620
 ---------------------------------------------------------------------
 Rotational constants (GHZ):      0.0872744      0.0850525      0.0430746
 Standard basis: 6-31G(d) (6D, 7F)
 There are   127 symmetry adapted basis functions of AG  symmetry.
 There are    40 symmetry adapted basis functions of B1G symmetry.
 There are    40 symmetry adapted basis functions of B2G symmetry.
 There are   115 symmetry adapted basis functions of B3G symmetry.
 There are    38 symmetry adapted basis functions of AU  symmetry.
 There are   122 symmetry adapted basis functions of B1U symmetry.
 There are   120 symmetry adapted basis functions of B2U symmetry.
 There are    42 symmetry adapted basis functions of B3U symmetry.
 Integral buffers will be    131072 words long.
 Raffenetti 2 integral format.
 Two-electron integral symmetry is turned on.
   644 basis functions,  1208 primitive gaussians,   644 cartesian basis functions
   133 alpha electrons      133 beta electrons
       nuclear repulsion energy      3982.0445803367 Hartrees.
 NAtoms=   62 NActive=   62 NUniq=   17 SFac= 4.00D+00 NAtFMM=   50 NAOKFM=T Big=F
 One-electron integrals computed using PRISM.
 NBasis=   644 RedAO= T  NBF=   127    40    40   115    38   122   120    42
 NBsUse=   644 1.00D-06 NBFU=   127    40    40   115    38   122   120    42
 Harris functional with IExCor=  402 diagonalized for initial guess.
 ExpMin= 1.61D-01 ExpMax= 4.17D+03 ExpMxC= 6.27D+02 IAcc=1 IRadAn=         1 AccDes= 0.00D+00
 HarFok:  IExCor=  402 AccDes= 0.00D+00 IRadAn=         1 IDoV= 1
 ScaDFX=  1.000000  1.000000  1.000000  1.000000
 FoFCou: FMM=F IPFlag=           0 FMFlag=      100000 FMFlg1=        2000
         NFxFlg=           0 DoJE=T BraDBF=F KetDBF=T FulRan=T
         Omega=  0.000000  0.000000  1.000000  0.000000  0.000000 ICntrl=     500 IOpCl=  0
         NMat0=    1 NMatS0=    1 NMatT0=    0 NMatD0=    1 NMtDS0=    0 NMtDT0=    0
         I1Cent=           4 NGrid=           0.
 Petite list used in FoFCou.
 Initial guess orbital symmetries:
       Occupied  (B1U) (AG) (AG) (B2U) (B1U) (AG) (B3G) (B2U) (B2U)
                 (AG) (B3G) (B1U) (B1U) (AG) (B3G) (B2U) (B2U)
                 (AG) (B1U) (AG) (B3G) (B1U) (B3G) (B2U) (AG) (B2U)
                 (B3G) (B1U) (B1U) (B3G) (B2U) (AG) (B1U) (AG)
                 (B3G) (B2U) (AG) (B1U) (B3G) (B2U) (AG) (B1U)
                 (B2U) (AG) (AG) (B1U) (B2U) (AG) (B3G) (B2U) (B1U)
                 (AG) (B1U) (B3G) (B2U) (AG) (B3G) (B1U) (B2U)
                 (AG) (B3G) (B2U) (B1U) (AG) (B1U) (B2U) (AG) (B3G)
                 (B2U) (AG) (B1U) (B3G) (B3G) (AG) (B1U) (B2U)
                 (AG) (B1U) (B2U) (AG) (B3G) (B1U) (B2U) (AG) (B3G)
                 (B1U) (B2U) (AG) (B1U) (B3G) (AG) (B2U) (B3G)
                 (B1U) (AG) (B2U) (B3G) (AG) (B3U) (B1U) (B2G)
                 (B2U) (B1G) (B3U) (B1U) (B3G) (B2U) (B3G) (B1U)
                 (B3G) (AG) (B2U) (B1U) (AG) (B3U) (B2G) (B1G)
                 (B3U) (AU) (B1G) (B2G) (AU) (B2U) (AG) (B3U) (B2G)
                 (B1G) (AU) (B3U) (B2G) (B1G) (B3U) (AU)
       Virtual   (B1G) (B2G) (B3U) (AU) (B2G) (B3U) (B1G) (AU)
                 (B2G) (B1G) (AU) (B3U) (B2G) (B1G) (AG) (AG) (B1U)
                 (B2U) (B3U) (AG) (B2U) (B3G) (AG) (B1U) (AU) (B2G)
                 (B1G) (AU) (B2U) (B1U) (B3G) (B3G) (B1U) (AG)
                 (B2U) (AG) (B2U) (B3G) (B1U) (AG) (B2U) (B3G)
                 (B1U) (B3G) (B1U) (AG) (B3G) (B2U) (B1U) (B2U)
                 (AG) (B3G) (B3G) (B1U) (B2U) (AG) (B1U) (AG) (B2U)
                 (AG) (B3G) (B1U) (B2U) (B1U) (AG) (B3G) (AG) (B2U)
                 (B2U) (B3G) (B1U) (B3G) (B1U) (B2U) (B1U) (AG)
                 (AG) (B3G) (B2U) (B3G) (AG) (B1U) (B2U) (B3G)
                 (B1U) (B3U) (B2G) (AG) (B1G) (B3G) (B3U) (B1U)
                 (B2U) (B2U) (AU) (B3G) (AG) (B1U) (B3G) (B1G)
                 (B3U) (B2G) (AG) (B1U) (B2U) (B1U) (B3G) (B2U)
                 (AG) (AG) (B3G) (B2U) (B1U) (B3U) (B1G) (B2G)
                 (B1U) (AU) (B2U) (B3G) (AG) (B1U) (B2U) (AG) (AG)
                 (B3G) (B1U) (AU) (B3G) (B2G) (B1G) (B1U) (B2U)
                 (B3U) (AG) (B2U) (AG) (B2G) (B1G) (B3U) (B3U)
                 (AU) (B2G) (B1G) (AU) (B3U) (B2G) (B1G) (B3U)
                 (AU) (AU) (B3G) (B2U) (B1G) (B2G) (B1U) (AG) (B2U)
                 (B3G) (B3U) (AG) (B1U) (B2U) (B3G) (AU) (B2G)
                 (B1G) (B1U) (B2U) (B3G) (AG) (B3G) (B2G) (B2U)
                 (B1U) (AG) (B1U) (B1U) (B2U) (B3G) (B1G) (AG)
                 (AU) (B3U) (AG) (B2U) (B3G) (B3G) (B1U) (AG) (AG)
                 (B2U) (B1U) (B2U) (AG) (B1U) (B3G) (B2U) (B3G)
                 (B3G) (B1U) (AG) (B2U) (AG) (B3G) (B2U) (B1U)
                 (B1U) (AG) (B2U) (B3G) (B3G) (AG) (B3G) (B1U)
                 (B2U) (B1U) (AG) (B1U) (B2U) (AG) (B3U) (B2U)
                 (B3G) (B2G) (B3G) (B1G) (AG) (B3U) (B1U) (B1U)
                 (B2U) (AG) (B2U) (B1U) (B3U) (B2G) (B1G) (B3G)
                 (AG) (AU) (B3G) (B3U) (B1G) (AU) (B2G) (AU) (AG)
                 (B2U) (B2G) (B1G) (B2U) (B1U) (B3U) (B3G) (AG)
                 (B1U) (B2G) (B1G) (B3U) (B3U) (B3U) (B2G) (B3G)
                 (B1G) (AG) (B2U) (B1U) (B3G) (B3U) (B2U) (AU)
                 (B2G) (B1G) (AU) (AU) (AG) (B2G) (B1G) (B3U) (B1U)
                 (B1U) (B2U) (B3G) (B3G) (AG) (B1U) (B2U) (AG)
                 (AG) (B3G) (B2U) (B1U) (AG) (B2U) (B1U) (AG) (B3G)
                 (AG) (B2U) (B1U) (AU) (B2G) (AG) (B1G) (B1U) (B2U)
                 (AG) (B3G) (AU) (B1U) (B3G) (AG) (B2U) (B3U) (AG)
                 (B1U) (B2U) (B1U) (AG) (B1G) (B3G) (B2G) (B2U)
                 (AG) (B1U) (B2U) (AG) (B3U) (B1U) (B2U) (B3G)
                 (B3G) (B3G) (B1U) (B2U) (AG) (AG) (B1U) (B2U)
                 (B3U) (B3G) (AG) (B2G) (B1U) (AU) (B1G) (B2U)
                 (B3U) (B3G) (B3G) (B1G) (B2G) (AG) (B1U) (AU)
                 (B2U) (AG) (B1U) (B2U) (B3G) (AU) (B1U) (B1G)
                 (B2G) (AG) (B3G) (AU) (B3U) (B1G) (B2G) (B3U)
                 (B1U) (B2U) (B1G) (AU) (B3G) (B2G) (AU) (B2U)
                 (AG) (B3G) (B1U) (B3U) (B1G) (B3U) (B2G) (B1U)
                 (AG) (B2U) (AU) (B1G) (B2G) (B3G) (B1U) (AG) (B2U)
                 (B3G) (B3G) (B2U) (B3U) (AU) (B1U) (AG) (B2G)
                 (AG) (B3G) (B2U) (AG) (B1G) (B1U) (AU) (B2U) (B1U)
                 (AU) (B2G) (B1G) (B3G) (B2U) (AG) (B1U) (B3U)
                 (B3G) (B2U) (AG) (AU) (B1U) (AG) (AG) (B2G) (B1U)
                 (B2U) (B1G) (AU) (B3G) (AG) (B1U) (B2U) (B3G)
                 (B3G) (B1U) (B2U) (B3G) (B3G) (B2U) (B1U) (B2U)
                 (AG) (AG) (B1U) (B3G) (B1U) (B2U) (AG) (B3G) (B3G)
                 (B2U) (B3G) (B1U) (B2U) (AG) (B1U) (B3G) (AG)
                 (B1U) (B2U) (B3G) (B3G) (B2U) (B1U) (B3G) (B2U)
                 (AG) (AG) (B1U) (B2U) (AG) (AG) (B3G) (B1U) (B2U)
                 (B3G) (B1U) (B3G) (B1U) (AG) (B2U) (B2U) (AG)
                 (B3G) (B1U) (AG) (B2U) (B1U) (B3G) (AG) (B2U)
                 (B3G) (B1U) (AG) (B2U) (B3G) (B1U) (B2U) (AG)
                 (B1U) (AG) (B3G) (B1U) (B2U) (B3G)
 The electronic state of the initial guess is 1-AG.
 Requested convergence on RMS density matrix=1.00D-08 within 128 cycles.
 Requested convergence on MAX density matrix=1.00D-06.
 Requested convergence on             energy=1.00D-06.
 No special actions if energy rises.
 Integral accuracy reduced to 1.0D-05 until final iterations.
 Initial convergence to 1.0D-05 achieved.  Increase integral accuracy.
 SCF Done:  E(RB3LYP) =  -1604.12516895     A.U. after   14 cycles
             Convg  =    0.9277D-08             -V/T =  2.0092

 **********************************************************************

            Population analysis using the SCF density.

 **********************************************************************

 Orbital symmetries:
       Occupied  (B1U) (AG) (AG) (B2U) (B3G) (B2U) (B1U) (AG) (B1U)
                 (B3G) (AG) (B2U) (B1U) (AG) (B3G) (B2U) (B1U)
                 (AG) (B3G) (B2U) (B3G) (B1U) (B2U) (AG) (B1U)
                 (AG) (B2U) (AG) (B3G) (B2U) (B3G) (B1U) (B2U)
                 (AG) (B3G) (B1U) (B2U) (AG) (B3G) (B1U) (AG) (B1U)
                 (B2U) (AG) (AG) (B1U) (B2U) (AG) (B3G) (B2U) (B1U)
                 (AG) (B1U) (B3G) (B2U) (AG) (B2U) (B3G) (B1U)
                 (AG) (B3G) (AG) (B2U) (B1U) (B1U) (B2U) (AG) (B3G)
                 (B2U) (AG) (B3G) (B1U) (B3G) (AG) (B1U) (B2U)
                 (AG) (B1U) (B2U) (AG) (B1U) (B3G) (B2U) (B3G)
                 (B1U) (AG) (B2U) (B3U) (AG) (B2G) (B3G) (AG) (B1U)
                 (B2U) (B3G) (B1U) (AG) (B2U) (B1G) (B1U) (B3U)
                 (AG) (B3G) (B2U) (B1U) (B3G) (B2U) (B3G) (B1U)
                 (B2G) (B3U) (AG) (B3G) (B1U) (B1G) (B2U) (AG)
                 (B3U) (AU) (B1G) (B2G) (AU) (B2U) (AG) (B3U) (B2G)
                 (AU) (B1G) (B3U) (B2G) (B1G) (B3U) (AU)
       Virtual   (B1G) (B2G) (B3U) (B2G) (AU) (B3U) (B1G) (AU)
                 (B1G) (B2G) (B3U) (AU) (AG) (B1U) (B2U) (AG) (B3G)
                 (AG) (B1U) (B2U) (B2G) (AG) (B1G) (B3G) (B2U)
                 (B3U) (B1U) (B3G) (B1U) (AG) (B2U) (B3G) (AG)
                 (AU) (B1G) (B2G) (AU) (B1U) (B2U) (B2U) (B3G)
                 (AG) (B1U) (B3G) (B1U) (B3G) (B2U) (B3G) (B1U)
                 (AG) (B3G) (B2U) (B1U) (AG) (B2U) (B1U) (AG) (AG)
                 (AG) (B2U) (B3G) (B1U) (B2U) (B1U) (AG) (B2U)
                 (AG) (B2U) (B1U) (B3G) (B3G) (B1U) (B3G) (AG)
                 (B2U) (B1U) (AG) (AG) (B2U) (B3G) (B1U) (B3U)
                 (B2G) (B2U) (B1U) (B3G) (AG) (B1G) (B3U) (B3G)
                 (AU) (B2U) (B1U) (B2G) (B1G) (B3G) (B3U) (AG)
                 (B2U) (B1U) (AG) (B3G) (B1U) (B2U) (B3U) (B2G)
                 (B1G) (AG) (B3G) (AU) (B1U) (B3G) (AG) (B2U) (B1U)
                 (AG) (B2U) (B1U) (B3G) (B2U) (AG) (B1U) (AG) (B2U)
                 (B3G) (AU) (B1G) (B2G) (B3U) (B2G) (B1U) (AG)
                 (B1G) (B3U) (B2U) (B3G) (AU) (B3G) (B3U) (B1U)
                 (AG) (B2U) (B2G) (B1G) (AU) (B3U) (B2G) (B1G)
                 (B3U) (AU) (AU) (B1G) (B2G) (B2U) (B3G) (B3U)
                 (B1U) (B2U) (AG) (AG) (AU) (B1G) (B3G) (B2G) (B2U)
                 (B3G) (B1U) (B2U) (B3G) (B2G) (B1U) (AG) (B1U)
                 (B2U) (AG) (B3G) (AU) (B1U) (B1G) (B3U) (AG) (B1U)
                 (B2U) (B3G) (AG) (B2U) (B3G) (AG) (B3G) (B1U)
                 (AG) (B2U) (B1U) (B2U) (AG) (B3G) (B2U) (B1U)
                 (B3G) (B3G) (AG) (B1U) (B2U) (AG) (B3G) (B1U)
                 (B2U) (AG) (B1U) (B2U) (B3G) (B3G) (B1U) (B3G)
                 (AG) (B2U) (B1U) (AG) (B1U) (B2U) (AG) (B3G) (B2U)
                 (B3G) (AG) (B3U) (B1U) (B2G) (B1U) (B2U) (AG)
                 (B1G) (B3U) (B2U) (B1U) (B3G) (B2G) (B3U) (AG)
                 (B1G) (B3G) (AU) (AG) (B3U) (B1G) (AU) (B2U) (B2G)
                 (AU) (B2G) (B2U) (B1G) (B1U) (B3G) (AG) (B1U)
                 (B3U) (B3G) (AG) (B2U) (B3G) (B2G) (B1U) (B2U)
                 (B3U) (B2G) (B3U) (B1G) (B3U) (AG) (B1G) (AU)
                 (B1U) (B3U) (B2G) (B1U) (B1G) (B2U) (AU) (B3G)
                 (AU) (B2G) (B1G) (B3U) (B3G) (AG) (B1U) (AG) (B2U)
                 (B3G) (AG) (B2U) (B1U) (AG) (B2U) (B1U) (AG) (B3G)
                 (AG) (B1U) (AU) (B2G) (B2U) (B1G) (B1U) (B2U)
                 (AU) (AG) (AG) (B3G) (B1U) (B3U) (B3G) (B2U) (AG)
                 (B1U) (AG) (B2U) (B1U) (B1G) (B2G) (AG) (B3G)
                 (B2U) (B3U) (B3G) (B1U) (B2U) (AG) (B1U) (B3G)
                 (AG) (B2U) (B2U) (B3G) (B1U) (AG) (B1U) (B3U)
                 (AG) (B3G) (B2U) (B2G) (AU) (B1G) (B1U) (B3U)
                 (AG) (B2U) (B1G) (B3G) (B2G) (B3G) (AG) (B1U)
                 (AU) (AG) (B2U) (B1U) (B2U) (B3G) (AU) (B1U) (B1G)
                 (B2G) (AG) (AU) (B3G) (B3U) (B1G) (B2U) (B2G)
                 (B1G) (B1U) (B3U) (AU) (B3G) (B2G) (B3U) (B2U)
                 (AG) (B3G) (AU) (B1U) (B3U) (B1G) (B2G) (B1U)
                 (AG) (B2U) (AU) (B1G) (B3G) (B2G) (B1U) (B2U)
                 (AG) (B3G) (B3G) (B2U) (B3U) (AU) (B1U) (AG) (B2G)
                 (AG) (B1G) (B2U) (B1U) (AU) (AG) (B3G) (AU) (B2G)
                 (B2U) (B1G) (B1U) (B3G) (B2U) (B3U) (B1U) (AG)
                 (B3G) (B1U) (AU) (AG) (B2U) (B2G) (AG) (B1G) (B1U)
                 (AG) (AU) (B2U) (B3G) (AG) (B2U) (B1U) (B3G) (B3G)
                 (B2U) (B1U) (B3G) (B3G) (B2U) (B1U) (AG) (B2U)
                 (B1U) (AG) (B3G) (B2U) (B3G) (B1U) (AG) (B3G)
                 (B2U) (B3G) (B1U) (B2U) (AG) (B1U) (B3G) (AG)
                 (B1U) (B2U) (B3G) (B3G) (B2U) (B1U) (B3G) (B2U)
                 (AG) (AG) (B1U) (AG) (B3G) (B2U) (AG) (B1U) (B2U)
                 (B3G) (B1U) (B3G) (B2U) (B1U) (AG) (B2U) (AG)
                 (B3G) (B1U) (AG) (B2U) (B1U) (B3G) (AG) (B2U)
                 (B3G) (AG) (B1U) (B2U) (B3G) (B1U) (AG) (B2U)
                 (B1U) (AG) (B3G) (B1U) (B2U) (B3G)
 The electronic state is 1-AG.
 Alpha  occ. eigenvalues --  -14.38398 -14.38398 -14.31191 -14.31190 -10.23350
 Alpha  occ. eigenvalues --  -10.23350 -10.23350 -10.23350 -10.21835 -10.21835
 Alpha  occ. eigenvalues --  -10.21835 -10.21835 -10.20202 -10.20202 -10.20202
 Alpha  occ. eigenvalues --  -10.20202 -10.20031 -10.20031 -10.19984 -10.19984
 Alpha  occ. eigenvalues --  -10.19970 -10.19970 -10.19970 -10.19970 -10.19183
 Alpha  occ. eigenvalues --  -10.19183 -10.19119 -10.19119 -10.19118 -10.19118
 Alpha  occ. eigenvalues --  -10.19118 -10.19118 -10.19018 -10.19018 -10.18972
 Alpha  occ. eigenvalues --  -10.18972 -10.18212 -10.18212 -10.18146 -10.18146
 Alpha  occ. eigenvalues --   -1.00732  -1.00652  -0.94688  -0.94563  -0.86315
 Alpha  occ. eigenvalues --   -0.86294  -0.84262  -0.84217  -0.81698  -0.80236
 Alpha  occ. eigenvalues --   -0.78474  -0.78024  -0.77887  -0.76288  -0.74432
 Alpha  occ. eigenvalues --   -0.74323  -0.74197  -0.74029  -0.73554  -0.73399
 Alpha  occ. eigenvalues --   -0.69865  -0.65862  -0.65857  -0.65813  -0.64560
 Alpha  occ. eigenvalues --   -0.61651  -0.61588  -0.60680  -0.59887  -0.58814
 Alpha  occ. eigenvalues --   -0.58724  -0.58307  -0.57061  -0.56463  -0.56294
 Alpha  occ. eigenvalues --   -0.53549  -0.52167  -0.51402  -0.51314  -0.50270
 Alpha  occ. eigenvalues --   -0.49913  -0.49726  -0.47598  -0.47268  -0.46512
 Alpha  occ. eigenvalues --   -0.45068  -0.44900  -0.44900  -0.44778  -0.44673
 Alpha  occ. eigenvalues --   -0.44489  -0.44409  -0.44212  -0.44090  -0.43858
 Alpha  occ. eigenvalues --   -0.43195  -0.42387  -0.41593  -0.41095  -0.41029
 Alpha  occ. eigenvalues --   -0.40601  -0.40572  -0.40433  -0.39937  -0.38262
 Alpha  occ. eigenvalues --   -0.38143  -0.36788  -0.36675  -0.35723  -0.35622
 Alpha  occ. eigenvalues --   -0.35591  -0.35377  -0.34847  -0.34175  -0.34079
 Alpha  occ. eigenvalues --   -0.33966  -0.33769  -0.33412  -0.32708  -0.29785
 Alpha  occ. eigenvalues --   -0.28582  -0.26983  -0.26401  -0.26319  -0.25918
 Alpha  occ. eigenvalues --   -0.25867  -0.24316  -0.24144  -0.23558  -0.23399
 Alpha  occ. eigenvalues --   -0.22900  -0.19009  -0.17189
 Alpha virt. eigenvalues --   -0.08052  -0.07981  -0.03142  -0.02292  -0.02197
 Alpha virt. eigenvalues --   -0.01149  -0.00990   0.03630   0.03770   0.04089
 Alpha virt. eigenvalues --    0.06749   0.07119   0.08408   0.08832   0.09129
 Alpha virt. eigenvalues --    0.09591   0.09831   0.10550   0.11378   0.11578
 Alpha virt. eigenvalues --    0.12033   0.12549   0.13247   0.14862   0.15308
 Alpha virt. eigenvalues --    0.15691   0.15824   0.16005   0.16641   0.16976
 Alpha virt. eigenvalues --    0.17109   0.17645   0.18329   0.18769   0.19593
 Alpha virt. eigenvalues --    0.19921   0.19963   0.20164   0.20517   0.21817
 Alpha virt. eigenvalues --    0.22403   0.22670   0.22966   0.23892   0.24177
 Alpha virt. eigenvalues --    0.25458   0.26132   0.26604   0.27301   0.27426
 Alpha virt. eigenvalues --    0.27788   0.27887   0.28462   0.28464   0.28914
 Alpha virt. eigenvalues --    0.29873   0.30275   0.31124   0.32497   0.32877
 Alpha virt. eigenvalues --    0.33322   0.34193   0.35208   0.35709   0.36695
 Alpha virt. eigenvalues --    0.37430   0.38480   0.39873   0.39934   0.39942
 Alpha virt. eigenvalues --    0.41288   0.43005   0.43018   0.44143   0.44158
 Alpha virt. eigenvalues --    0.44688   0.45804   0.47021   0.49236   0.49237
 Alpha virt. eigenvalues --    0.49919   0.49993   0.50283   0.50623   0.50767
 Alpha virt. eigenvalues --    0.50882   0.50981   0.51396   0.51996   0.52288
 Alpha virt. eigenvalues --    0.53663   0.53964   0.54186   0.54425   0.54591
 Alpha virt. eigenvalues --    0.54604   0.54622   0.55502   0.56032   0.56364
 Alpha virt. eigenvalues --    0.57044   0.57080   0.57102   0.57180   0.57888
 Alpha virt. eigenvalues --    0.57919   0.57978   0.58120   0.58446   0.58633
 Alpha virt. eigenvalues --    0.59211   0.59239   0.59318   0.59424   0.60206
 Alpha virt. eigenvalues --    0.60563   0.60733   0.60827   0.60847   0.60917
 Alpha virt. eigenvalues --    0.61110   0.61272   0.61313   0.61319   0.61609
 Alpha virt. eigenvalues --    0.61841   0.62337   0.62701   0.62913   0.63496
 Alpha virt. eigenvalues --    0.64108   0.64418   0.64797   0.64820   0.65067
 Alpha virt. eigenvalues --    0.65315   0.65792   0.65863   0.66081   0.66110
 Alpha virt. eigenvalues --    0.68628   0.68725   0.68956   0.69143   0.69426
 Alpha virt. eigenvalues --    0.71057   0.72179   0.72993   0.74279   0.74401
 Alpha virt. eigenvalues --    0.75043   0.75455   0.76233   0.77900   0.78422
 Alpha virt. eigenvalues --    0.79453   0.79481   0.79887   0.80311   0.81492
 Alpha virt. eigenvalues --    0.82163   0.82709   0.82886   0.83061   0.83504
 Alpha virt. eigenvalues --    0.83802   0.83813   0.84562   0.84787   0.84819
 Alpha virt. eigenvalues --    0.84902   0.85699   0.86587   0.86942   0.87281
 Alpha virt. eigenvalues --    0.87852   0.88132   0.88388   0.88713   0.89342
 Alpha virt. eigenvalues --    0.89637   0.89705   0.89871   0.89951   0.90466
 Alpha virt. eigenvalues --    0.90671   0.90853   0.91315   0.91516   0.92410
 Alpha virt. eigenvalues --    0.93617   0.94620   0.94636   0.95474   0.95766
 Alpha virt. eigenvalues --    0.96663   0.96923   0.97000   0.99308   0.99792
 Alpha virt. eigenvalues --    1.00613   1.00752   1.01208   1.02088   1.02758
 Alpha virt. eigenvalues --    1.03963   1.04170   1.07893   1.08244   1.09891
 Alpha virt. eigenvalues --    1.10250   1.11908   1.12094   1.12606   1.12685
 Alpha virt. eigenvalues --    1.12780   1.12783   1.15397   1.15796   1.15958
 Alpha virt. eigenvalues --    1.17344   1.17450   1.17511   1.18882   1.19399
 Alpha virt. eigenvalues --    1.19697   1.20697   1.20820   1.21063   1.21555
 Alpha virt. eigenvalues --    1.22562   1.22991   1.24738   1.24937   1.25672
 Alpha virt. eigenvalues --    1.27155   1.28160   1.28359   1.28525   1.28730
 Alpha virt. eigenvalues --    1.29721   1.29744   1.31458   1.31603   1.32798
 Alpha virt. eigenvalues --    1.32968   1.33468   1.34419   1.34697   1.36617
 Alpha virt. eigenvalues --    1.37115   1.38000   1.38047   1.38448   1.39845
 Alpha virt. eigenvalues --    1.40130   1.40260   1.42019   1.42496   1.42855
 Alpha virt. eigenvalues --    1.43142   1.43217   1.43552   1.43941   1.44494
 Alpha virt. eigenvalues --    1.45297   1.45394   1.45490   1.46017   1.46068
 Alpha virt. eigenvalues --    1.46330   1.46442   1.46992   1.47967   1.48652
 Alpha virt. eigenvalues --    1.48663   1.48725   1.48746   1.48797   1.49384
 Alpha virt. eigenvalues --    1.49789   1.49791   1.50412   1.50485   1.53734
 Alpha virt. eigenvalues --    1.55454   1.56929   1.63929   1.64270   1.66061
 Alpha virt. eigenvalues --    1.66187   1.67431   1.68409   1.69107   1.71801
 Alpha virt. eigenvalues --    1.72308   1.74139   1.74285   1.75432   1.77451
 Alpha virt. eigenvalues --    1.77972   1.78809   1.79107   1.79353   1.80419
 Alpha virt. eigenvalues --    1.80590   1.80840   1.81079   1.82156   1.82198
 Alpha virt. eigenvalues --    1.82390   1.83296   1.83784   1.84531   1.84679
 Alpha virt. eigenvalues --    1.85762   1.86039   1.87455   1.87545   1.87946
 Alpha virt. eigenvalues --    1.88070   1.88408   1.89533   1.91283   1.92389
 Alpha virt. eigenvalues --    1.92391   1.92633   1.92783   1.92975   1.93739
 Alpha virt. eigenvalues --    1.93766   1.94370   1.94526   1.99432   1.99475
 Alpha virt. eigenvalues --    1.99783   1.99982   2.02276   2.02444   2.02489
 Alpha virt. eigenvalues --    2.02735   2.03435   2.03996   2.04694   2.05054
 Alpha virt. eigenvalues --    2.05184   2.05875   2.06084   2.07452   2.07944
 Alpha virt. eigenvalues --    2.08139   2.08634   2.09966   2.10001   2.10254
 Alpha virt. eigenvalues --    2.10530   2.11313   2.11910   2.12013   2.17316
 Alpha virt. eigenvalues --    2.18174   2.18189   2.18430   2.18903   2.19758
 Alpha virt. eigenvalues --    2.20183   2.22305   2.22579   2.23795   2.24710
 Alpha virt. eigenvalues --    2.24833   2.25011   2.25231   2.25279   2.25551
 Alpha virt. eigenvalues --    2.25848   2.27456   2.27915   2.28084   2.28161
 Alpha virt. eigenvalues --    2.28370   2.28419   2.28921   2.29146   2.30418
 Alpha virt. eigenvalues --    2.30663   2.30742   2.33517   2.34257   2.34512
 Alpha virt. eigenvalues --    2.38087   2.39615   2.40049   2.41279   2.44433
 Alpha virt. eigenvalues --    2.44616   2.44621   2.45244   2.46566   2.47022
 Alpha virt. eigenvalues --    2.47339   2.49021   2.50721   2.52337   2.54836
 Alpha virt. eigenvalues --    2.56302   2.56757   2.57514   2.57602   2.57761
 Alpha virt. eigenvalues --    2.58336   2.58443   2.61349   2.61961   2.62508
 Alpha virt. eigenvalues --    2.62953   2.63548   2.64321   2.65117   2.65279
 Alpha virt. eigenvalues --    2.66105   2.67249   2.67632   2.68694   2.68980
 Alpha virt. eigenvalues --    2.69160   2.69533   2.70611   2.70817   2.71181
 Alpha virt. eigenvalues --    2.71205   2.71692   2.71828   2.72204   2.72779
 Alpha virt. eigenvalues --    2.74256   2.81512   2.82131   2.82195   2.83618
 Alpha virt. eigenvalues --    2.83689   2.84235   2.85952   2.88739   2.89264
 Alpha virt. eigenvalues --    2.89911   2.91659   2.91751   2.94120   2.95477
 Alpha virt. eigenvalues --    2.97226   3.02838   3.03915   3.04305   3.05253
 Alpha virt. eigenvalues --    3.08925   3.11195   3.14851   3.16151   3.20989
 Alpha virt. eigenvalues --    3.24812   3.25158   3.33679   3.34107   3.40175
 Alpha virt. eigenvalues --    3.42602   3.44481   3.46499   3.49772   3.50993
 Alpha virt. eigenvalues --    3.51406   4.05540   4.05770   4.06567   4.07886
 Alpha virt. eigenvalues --    4.08008   4.08951   4.08976   4.09050   4.09685
 Alpha virt. eigenvalues --    4.10387   4.11012   4.12408   4.15304   4.16398
 Alpha virt. eigenvalues --    4.16738   4.16988   4.22824   4.23849   4.24298
 Alpha virt. eigenvalues --    4.26886   4.27024   4.29436   4.30113   4.32509
 Alpha virt. eigenvalues --    4.41325   4.43059   4.45316   4.45503   4.46256
 Alpha virt. eigenvalues --    4.47196   4.49189   4.50210   4.57983   4.59131
 Alpha virt. eigenvalues --    4.66040   4.72446   4.79615   4.82960   4.83875
 Alpha virt. eigenvalues --    4.84812
          Condensed to atoms (all electrons):
 Mulliken atomic charges:
              1
     1  C    0.073001
     2  C    0.073001
     3  C    0.299688
     4  C    0.299688
     5  N   -0.698437
     6  C   -0.257564
     7  C    0.347302
     8  N   -0.795853
     9  C    0.347302
    10  C    0.073582
    11  C    0.073582
    12  C   -0.257564
    13  C    0.299688
    14  N   -0.698437
    15  C    0.073001
    16  C    0.073001
    17  C    0.347302
    18  N   -0.795853
    19  C    0.347302
    20  C    0.073582
    21  C    0.073582
    22  C   -0.257564
    23  C   -0.257564
    24  C    0.299688
    25  C   -0.200879
    26  C   -0.200879
    27  H    0.139937
    28  H    0.415778
    29  C   -0.189841
    30  C   -0.189841
    31  H    0.139937
    32  C   -0.200879
    33  C   -0.200879
    34  H    0.415778
    35  C   -0.189841
    36  C   -0.189841
    37  H    0.139937
    38  H    0.139937
    39  C   -0.137814
    40  C   -0.137814
    41  C   -0.137535
    42  C   -0.137535
    43  C   -0.137814
    44  C   -0.137814
    45  C   -0.137535
    46  C   -0.137535
    47  H    0.127990
    48  H    0.127990
    49  H    0.137869
    50  H    0.137869
    51  H    0.127990
    52  H    0.127990
    53  H    0.137869
    54  H    0.137869
    55  H    0.135045
    56  H    0.135045
    57  H    0.128476
    58  H    0.128476
    59  H    0.135045
    60  H    0.135045
    61  H    0.128476
    62  H    0.128476
 Sum of Mulliken atomic charges =   0.00000
 Mulliken charges with hydrogens summed into heavy atoms:
              1
     1  C    0.073001
     2  C    0.073001
     3  C    0.299688
     4  C    0.299688
     5  N   -0.698437
     6  C   -0.117627
     7  C    0.347302
     8  N   -0.380076
     9  C    0.347302
    10  C    0.073582
    11  C    0.073582
    12  C   -0.117627
    13  C    0.299688
    14  N   -0.698437
    15  C    0.073001
    16  C    0.073001
    17  C    0.347302
    18  N   -0.380076
    19  C    0.347302
    20  C    0.073582
    21  C    0.073582
    22  C   -0.117627
    23  C   -0.117627
    24  C    0.299688
    25  C   -0.072889
    26  C   -0.072889
    29  C   -0.051973
    30  C   -0.051973
    32  C   -0.072889
    33  C   -0.072889
    35  C   -0.051973
    36  C   -0.051973
    39  C   -0.002769
    40  C   -0.002769
    41  C   -0.009059
    42  C   -0.009059
    43  C   -0.002769
    44  C   -0.002769
    45  C   -0.009059
    46  C   -0.009059
 Sum of Mulliken charges with hydrogens summed into heavy atoms =   0.00000
 Electronic spatial extent (au):  <R**2>=          22907.6867
 Charge=              0.0000 electrons
 Dipole moment (field-independent basis, Debye):
    X=              0.0000    Y=              0.0000    Z=              0.0000  Tot=              0.0000
 Quadrupole moment (field-independent basis, Debye-Ang):
   XX=           -237.5391   YY=           -198.9941   ZZ=           -180.2128
   XY=              0.0000   XZ=              0.0000   YZ=              0.0000
 Traceless Quadrupole moment (field-independent basis, Debye-Ang):
   XX=            -31.9571   YY=              6.5879   ZZ=             25.3692
   XY=              0.0000   XZ=              0.0000   YZ=              0.0000
 Octapole moment (field-independent basis, Debye-Ang**2):
  XXX=              0.0000  YYY=              0.0000  ZZZ=              0.0000  XYY=              0.0000
  XXY=              0.0000  XXZ=              0.0000  XZZ=              0.0000  YZZ=              0.0000
  YYZ=              0.0000  XYZ=              0.0000
 Hexadecapole moment (field-independent basis, Debye-Ang**3):
 XXXX=           -241.7593 YYYY=         -14563.4611 ZZZZ=         -13525.3767 XXXY=              0.0000
 XXXZ=              0.0000 YYYX=              0.0000 YYYZ=              0.0000 ZZZX=              0.0000
 ZZZY=              0.0000 XXYY=          -2974.1822 XXZZ=          -2887.6440 YYZZ=          -4713.9931
 XXYZ=              0.0000 YYXZ=              0.0000 ZZXY=              0.0000
 N-N= 3.982044580337D+03 E-N=-1.168273110997D+04  KE= 1.589435544562D+03
 Symmetry AG   KE= 4.378534552312D+02
 Symmetry B1G  KE= 1.131411120931D+01
 Symmetry B2G  KE= 1.153828761904D+01
 Symmetry B3G  KE= 3.325104755578D+02
 Symmetry AU   KE= 9.214418165878D+00
 Symmetry B1U  KE= 3.850271484615D+02
 Symmetry B2U  KE= 3.855508328994D+02
 Symmetry B3U  KE= 1.642681541775D+01
 Calling FoFJK, ICntrl=      2127 FMM=F ISym2X=1 I1Cent= 0 IOpClX= 0 NMat=1 NMatS=1 NMatT=0.
 ***** Axes restored to original set *****
 -------------------------------------------------------------------
 Center     Atomic                   Forces (Hartrees/Bohr)
 Number     Number              X              Y              Z
 -------------------------------------------------------------------
      1        6          -0.003230919    0.000000048   -0.036308490
      2        6          -0.003230919   -0.000000048    0.036308490
      3        6           0.003174286   -0.000000019    0.014275768
      4        6           0.003174286    0.000000019   -0.014275768
      5        7           0.020709308    0.000000000    0.000000000
      6        6           0.017785860   -0.000000029    0.022104934
      7        6          -0.072878790   -0.000000058    0.043494885
      8        7           0.000000000   -0.000000011    0.008421627
      9        6           0.072878790   -0.000000058    0.043494885
     10        6          -0.023315042    0.000000047   -0.035778470
     11        6           0.023315042    0.000000047   -0.035778470
     12        6          -0.017785860   -0.000000029    0.022104934
     13        6          -0.003174286    0.000000019   -0.014275768
     14        7          -0.020709308    0.000000000    0.000000000
     15        6           0.003230919   -0.000000048    0.036308490
     16        6           0.003230919    0.000000048   -0.036308490
     17        6           0.072878790    0.000000058   -0.043494885
     18        7           0.000000000    0.000000011   -0.008421627
     19        6          -0.072878790    0.000000058   -0.043494885
     20        6          -0.023315042   -0.000000047    0.035778470
     21        6           0.023315042   -0.000000047    0.035778470
     22        6           0.017785860    0.000000029   -0.022104934
     23        6          -0.017785860    0.000000029   -0.022104934
     24        6          -0.003174286   -0.000000019    0.014275768
     25        6          -0.012142174   -0.000000012    0.009003406
     26        6          -0.012142174    0.000000012   -0.009003406
     27        1           0.001161952    0.000000002   -0.001245835
     28        1           0.000000000    0.000000016   -0.011754120
     29        6           0.007995944    0.000000030   -0.022277425
     30        6          -0.007995944    0.000000030   -0.022277425
     31        1          -0.001161952    0.000000002   -0.001245835
     32        6           0.012142174    0.000000012   -0.009003406
     33        6           0.012142174   -0.000000012    0.009003406
     34        1           0.000000000   -0.000000016    0.011754120
     35        6           0.007995944   -0.000000030    0.022277425
     36        6          -0.007995944   -0.000000030    0.022277425
     37        1           0.001161952   -0.000000002    0.001245835
     38        1          -0.001161952   -0.000000002    0.001245835
     39        6          -0.006373980   -0.000000023    0.017426480
     40        6           0.006373980   -0.000000023    0.017426480
     41        6          -0.011752809    0.000000002   -0.001879127
     42        6          -0.011752809   -0.000000002    0.001879127
     43        6          -0.006373980    0.000000023   -0.017426480
     44        6           0.006373980    0.000000023   -0.017426480
     45        6           0.011752809   -0.000000002    0.001879127
     46        6           0.011752809    0.000000002   -0.001879127
     47        1          -0.000733851    0.000000005   -0.003793842
     48        1          -0.000733851   -0.000000005    0.003793842
     49        1          -0.002997281    0.000000000   -0.000099473
     50        1           0.002997281    0.000000000   -0.000099473
     51        1           0.000733851   -0.000000005    0.003793842
     52        1           0.000733851    0.000000005   -0.003793842
     53        1          -0.002997281    0.000000000    0.000099473
     54        1           0.002997281    0.000000000    0.000099473
     55        1          -0.001437062    0.000000003   -0.002179883
     56        1           0.001437062    0.000000003   -0.002179883
     57        1           0.002751102   -0.000000002    0.001349685
     58        1           0.002751102    0.000000002   -0.001349685
     59        1          -0.001437062   -0.000000003    0.002179883
     60        1           0.001437062   -0.000000003    0.002179883
     61        1          -0.002751102    0.000000002   -0.001349685
     62        1          -0.002751102   -0.000000002    0.001349685
 -------------------------------------------------------------------
 Cartesian Forces:  Max     0.072878790 RMS     0.016727476

 GradGradGradGradGradGradGradGradGradGradGradGradGradGradGradGradGradGrad
 Berny optimization.
 Internal  Forces:  Max     0.046787549 RMS     0.008444075
 Search for a local minimum.
 Step number   1 out of a maximum of  372
 All quantities printed in internal units (Hartrees-Bohrs-Radians)
 Mixed Optimization -- RFO/linear search
 Second derivative matrix not updated -- first step.
 ITU=  0
     Eigenvalues ---    0.01617   0.01623   0.01633   0.01654   0.01751
     Eigenvalues ---    0.01751   0.01784   0.01785   0.01790   0.01791
     Eigenvalues ---    0.01791   0.01791   0.01793   0.01798   0.01799
     Eigenvalues ---    0.01877   0.01878   0.01962   0.01962   0.01963
     Eigenvalues ---    0.01963   0.01981   0.01982   0.01982   0.01982
     Eigenvalues ---    0.01983   0.01983   0.01985   0.01985   0.02023
     Eigenvalues ---    0.02023   0.02047   0.02048   0.02062   0.02062
     Eigenvalues ---    0.02062   0.02064   0.02064   0.02067   0.02067
     Eigenvalues ---    0.02077   0.02082   0.02082   0.02088   0.02088
     Eigenvalues ---    0.02098   0.02106   0.02121   0.02122   0.02181
     Eigenvalues ---    0.02228   0.02234   0.02235   0.02241   0.02269
     Eigenvalues ---    0.02270   0.02270   0.02280   0.02283   0.16000
     Eigenvalues ---    0.16000   0.16000   0.16000   0.16000   0.16000
     Eigenvalues ---    0.16000   0.16000   0.16000   0.16000   0.16000
     Eigenvalues ---    0.16000   0.16000   0.16000   0.16000   0.16000
     Eigenvalues ---    0.16000   0.16000   0.16000   0.16000   0.16000
     Eigenvalues ---    0.16000   0.22000   0.22000   0.22000   0.22000
     Eigenvalues ---    0.22000   0.22605   0.22605   0.22617   0.22617
     Eigenvalues ---    0.23176   0.23343   0.23346   0.23802   0.23813
     Eigenvalues ---    0.24541   0.24542   0.24542   0.24543   0.25000
     Eigenvalues ---    0.25000   0.25000   0.25000   0.25000   0.25000
     Eigenvalues ---    0.25000   0.25000   0.25000   0.25000   0.25000
     Eigenvalues ---    0.34196   0.34227   0.35575   0.35575   0.35575
     Eigenvalues ---    0.35575   0.35726   0.35726   0.35726   0.35726
     Eigenvalues ---    0.35756   0.35756   0.35756   0.35756   0.35836
     Eigenvalues ---    0.35836   0.35836   0.35836   0.35852   0.35852
     Eigenvalues ---    0.35852   0.35852   0.36115   0.36127   0.39556
     Eigenvalues ---    0.39698   0.40243   0.40319   0.41147   0.41155
     Eigenvalues ---    0.41369   0.41377   0.41386   0.41518   0.42001
     Eigenvalues ---    0.42001   0.42022   0.42163   0.42178   0.42178
     Eigenvalues ---    0.43101   0.43117   0.43141   0.43141   0.43799
     Eigenvalues ---    0.43868   0.44279   0.44290   0.44468   0.44498
     Eigenvalues ---    0.45277   0.45382   0.45382   0.45459   0.45665
     Eigenvalues ---    0.45704   0.45709   0.45709   0.46326   0.46495
     Eigenvalues ---    0.48130   0.48140   0.51204   0.51445   0.51857
     Eigenvalues ---    0.52135   0.52163   0.52170   0.52616   0.52669
 RFO step:  Lambda=-5.62724699D-02 EMin= 1.61706672D-02
 Linear search not attempted -- first point.
 Maximum step size (   0.300) exceeded in Quadratic search.
    -- Step size scaled by   0.843
 Iteration  1 RMS(Cart)=  0.03085867 RMS(Int)=  0.00022665
 Iteration  2 RMS(Cart)=  0.00057008 RMS(Int)=  0.00003614
 Iteration  3 RMS(Cart)=  0.00000025 RMS(Int)=  0.00003614
 ClnCor:  largest displacement from symmetrization is 8.98D-08 for atom    59.
 Variable       Old X    -DE/DX   Delta X   Delta X   Delta X     New X
                                 (Linear)    (Quad)   (Total)
    R1        2.59013   0.02445   0.00000   0.03991   0.03987   2.63000
    R2        2.76660   0.00418   0.00000   0.00893   0.00892   2.77553
    R3        2.63639   0.00191   0.00000   0.00421   0.00420   2.64060
[...]
 .00073631,0.00051083,0.,0.00099741,0.00000199,0.,0.00000055,0.00000152
 ,0.,0.00000759,0.00000158,0.,0.00000227,-0.00000176,0.,0.00000059,-0.0
 0037776,0.,0.00103509,-0.12865940,-0.00000014,0.13217652,-0.00002075,0
 .,0.00001414,-0.00001688,0.,-0.00000776,-0.00002572,0.,0.00011006,0.00
 002609,0.,0.00009328,0.00000769,0.,-0.00008102,0.00004936,0.,-0.000057
 92,-0.00004045,0.,0.00003484,0.00000775,0.,0.00001445,0.00002208,0.,0.
 00003637,0.00001996,0.,-0.00003843,-0.00002050,0.,-0.00003834,-0.00003
 444,0.,-0.00004278,-0.00001671,0.,0.00007063,-0.00000508,0.,-0.0000503
 2,0.00001962,0.,-0.00000054,0.00001488,0.,0.00001142,-0.00005370,0.,0.
 00007158,-0.00001116,0.,-0.00026076,0.00086673,0.,-0.00017825,-0.00158
 638,0.,-0.00337910,-0.00069263,0.,-0.00109260,-0.00004127,0.,-0.000083
 95,0.00003816,0.,-0.00007844,0.00003570,0.,0.00006219,0.00000731,0.,-0
 .00000343,0.00000810,0.,-0.00000815,0.00000190,0.,0.00000047,-0.000001
 24,0.,0.00000294,-0.00000361,0.,0.00001907,0.00000391,0.,0.00001860,-0
 .00000162,0.,0.00000154,-0.00001220,0.,-0.00001165,-0.00000775,0.,-0.0
 0000168,0.00008638,0.,0.00000147,0.01199387,0.00000002,-0.01591905,-0.
 00553074,0.,-0.00152043,-0.00002000,0.,-0.00000653,0.00006335,0.,-0.00
 002514,0.00001630,0.,-0.00000686,-0.00001565,0.,-0.00000732,0.00000646
 ,0.,-0.00000251,0.00000252,0.,0.00000617,-0.12774344,-0.00000016,0.119
 99918,-0.01073121,-0.00000004,0.02939404,-0.00000354,0.,0.00000480,-0.
 00000223,0.,-0.00000507,-0.00000132,0.,0.00000131,-0.00000084,0.,-0.00
 000063,0.00000146,0.,-0.00000050,-0.00000137,0.,-0.00000066,0.00000701
 ,0.,0.00000230,0.00000041,0.,0.00000223,0.00099567,0.,0.00045855,-0.00
 070626,0.,0.00147590,0.00000114,0.,0.00000197,-0.00000112,0.,0.0000020
 3,-0.00000212,0.,-0.00000158,-0.00000258,0.,0.00000239,0.13200162,0.,-
 0.00000073,0.,0.,0.00001981,0.,0.,0.00001455,0.,0.,0.00000257,0.,0.,0.
 00000647,0.,0.,-0.00000739,0.,0.,0.00000251,0.,0.,-0.00000256,0.,0.,0.
 00000216,0.,0.,0.00000123,0.,0.,-0.00000078,0.,0.,0.00000043,0.,0.,0.0
 0003772,0.,0.,-0.00005597,0.,0.,0.00000094,0.,0.,0.00000096,0.,0.,-0.0
 0065426,0.,0.,-0.00038758,0.,0.,0.00105729,0.,0.,0.00767396,0.00000001
 ,0.,-0.00028302,0.,0.,-0.00002510,0.,0.,0.00005159,0.,0.,-0.00001262,0
 .,0.,-0.00000283,0.,0.,-0.00000551,0.,0.,0.00000113,0.,0.,0.00000361,0
 .,0.,-0.00000083,0.,0.,-0.00000028,0.,0.,-0.00000342,0.,0.,-0.00000214
 ,0.,0.,-0.00000105,0.,0.,-0.00027522,0.,-0.00000002,0.00227264,0.00000
 003,0.,0.00564459,0.,0.,-0.00002962,0.,0.,0.00004972,0.,0.,-0.00000039
 ,0.,0.,-0.00000041,0.,0.,-0.00000118,0.,0.,-0.00000124,0.,-0.00000016,
 -0.03485877,0.00000032,0.,0.00198320,0.,0.,0.00000016,0.,0.,-0.0000063
 9,0.,0.,-0.00000007,0.,0.,0.00000837,0.,0.,0.00000056,0.,0.,0.00000058
 ,0.,0.,0.00000249,0.,0.,0.00000047,0.,0.,-0.00436686,0.,0.,0.00025995,
 0.,0.,0.00000046,0.,0.,0.00000024,0.,0.,0.00000110,0.,0.,0.00000077,0.
 ,0.00000017,0.02508693,0.00000150,0.,-0.00002442,0.00002584,0.,0.00000
 267,0.00000959,0.,0.00005726,0.00002251,0.,-0.00003616,-0.00005916,0.,
 -0.00001925,-0.00004627,0.,0.00001606,0.00001398,0.,-0.00001291,-0.000
 02611,0.,-0.00000990,0.00003887,0.,-0.00002817,-0.00002004,0.,0.000035
 43,0.00002315,0.,0.00003883,-0.00000584,0.,-0.00000825,0.00002027,0.,0
 .00000383,0.00004831,0.,-0.00003013,-0.00003867,0.,0.00001610,-0.00002
 841,0.,-0.00002870,-0.00003262,0.,0.00011829,-0.00026188,0.,-0.0006864
 6,0.00130026,0.,-0.00005504,-0.00421296,0.00000001,-0.00294123,-0.0007
 0104,0.,0.00027010,0.00003168,0.,-0.00012764,-0.00002144,0.,-0.0000044
 6,0.00001008,0.,-0.00000297,-0.00000994,0.,0.00001095,-0.00001263,0.,-
 0.00002955,-0.00000221,0.,-0.00000518,0.00000032,0.,0.00001135,0.00001
 075,0.,-0.00001749,-0.00001031,0.,-0.00001810,0.00000295,0.,-0.0000042
 0,0.00002224,0.,-0.00000886,0.00002099,0.,0.00000986,0.00011573,0.,0.0
 0004623,0.01554773,0.00000003,-0.01957409,-0.00050080,0.,0.00125624,-0
 .00000086,0.,0.00001669,0.00000381,0.,0.00000298,-0.00001533,0.,0.0000
 0265,0.00001334,0.,0.00000492,-0.00000666,0.,0.00001556,-0.00000510,0.
 ,-0.00001623,0.11964496,0.00000032,-0.27284253,-0.00228362,0.,0.003789
 40,-0.00000289,0.,-0.00000892,-0.00000084,0.,0.00001085,0.00000118,0.,
 -0.00000224,0.00000695,0.,0.00000520,-0.00000317,0.,0.00000160,0.00000
 256,0.,0.00000184,-0.00000337,0.,0.00000257,-0.00000134,0.,-0.00000362
 ,-0.00016309,0.,0.00105792,-0.00018065,0.,0.00008900,-0.00000197,0.,-0
 .00000459,0.00000203,0.,-0.00000448,0.00000573,0.,0.00000227,0.0000053
 2,0.,-0.00000259,-0.12863952,-0.00000035,0.28886968,0.00001488,0.,-0.0
 0001142,0.00001962,0.,0.00000054,0.00003570,0.,-0.00006219,-0.00001671
 ,0.,-0.00007063,-0.00000508,0.,0.00005032,-0.00003444,0.,0.00004278,0.
 00002208,0.,-0.00003637,0.00000775,0.,-0.00001445,-0.00004045,0.,-0.00
 003484,-0.00002050,0.,0.00003834,0.00001996,0.,0.00003843,0.00004936,0
 .,0.00005792,0.00002609,0.,-0.00009328,0.00000769,0.,0.00008102,-0.000
 01688,0.,0.00000776,-0.00002075,0.,-0.00001414,0.00086673,0.,0.0001782
 5,-0.00001116,0.,0.00026076,-0.00005370,0.,-0.00007158,-0.00069263,0.,
 0.00109260,-0.00158638,0.,0.00337910,0.00003816,0.,0.00007844,-0.00004
 127,0.,0.00008395,-0.00002572,0.,-0.00011006,-0.00000775,0.,0.00000168
 ,-0.00001220,0.,0.00001165,-0.00000162,0.,-0.00000154,-0.00000124,0.,-
 0.00000294,0.00000391,0.,-0.00001860,-0.00000361,0.,-0.00001907,0.0000
 0190,0.,-0.00000047,0.00000810,0.,0.00000815,0.00000731,0.,0.00000343,
 0.00008638,0.,-0.00000147,-0.00553074,0.,0.00152043,0.01199387,-0.0000
 0002,0.01591905,0.00006335,0.,0.00002514,-0.00002000,0.,0.00000653,-0.
 00001565,0.,0.00000732,0.00001630,0.,0.00000686,-0.00000223,0.,0.00000
 507,-0.00000354,0.,-0.00000480,-0.01073121,0.00000004,-0.02939404,-0.1
 2774344,0.00000016,-0.11999918,0.00000252,0.,-0.00000617,0.00000646,0.
 ,0.00000251,0.00000041,0.,-0.00000223,0.00000701,0.,-0.00000230,-0.000
 00137,0.,0.00000066,0.00000146,0.,0.00000050,-0.00000084,0.,0.00000063
 ,-0.00000132,0.,-0.00000131,-0.00070626,0.,-0.00147590,0.00099567,0.,-
 0.00045855,-0.00000112,0.,-0.00000203,0.00000114,0.,-0.00000197,0.0000
 0042,0.,0.00000176,0.00000213,0.,-0.00000147,0.00104653,0.,0.00036268,
 0.13200162,0.,0.00000096,0.,0.,0.00000094,0.,0.,-0.00001262,0.,0.,0.00
 003772,0.,0.,-0.00005597,0.,0.,0.00000043,0.,0.,0.00000216,0.,0.,-0.00
 000256,0.,0.,0.00000251,0.,0.,-0.00000078,0.,0.,0.00000123,0.,0.,-0.00
 000739,0.,0.,0.00000257,0.,0.,0.00000647,0.,0.,0.00001981,0.,0.,-0.000
 00073,0.,0.,0.00105729,0.,0.,-0.00038758,0.,0.,-0.00065426,0.,0.,-0.00
 028302,0.,0.,0.00767396,0.00000001,0.,0.00005159,0.,0.,-0.00002510,0.,
 0.,0.00001455,0.,0.,-0.00000105,0.,0.,-0.00000214,0.,0.,-0.00000342,0.
 ,0.,0.00000361,0.,0.,-0.00000028,0.,0.,-0.00000083,0.,0.,0.00000113,0.
 ,0.,-0.00000551,0.,0.,-0.00000283,0.,0.,-0.00027522,0.,0.,0.00564459,0
 .,0.00000002,0.00227264,0.00000003,0.,0.00004972,0.,0.,-0.00002962,0.,
 0.,-0.00000041,0.,0.,-0.00000039,0.,0.,-0.00000639,0.,0.,0.00000016,0.
 ,0.,0.00198320,0.,0.00000016,-0.03485877,0.00000032,0.,-0.00000124,0.,
 0.,-0.00000118,0.,0.,0.00000047,0.,0.,0.00000249,0.,0.,0.00000058,0.,0
 .,0.00000056,0.,0.,0.00000837,0.,0.,-0.00000007,0.,0.,0.00025995,0.,0.
 ,-0.00436686,0.,0.,0.00000024,0.,0.,0.00000046,0.,0.,0.00000258,0.,0.,
 0.00000139,0.,0.,-0.00320689,0.,-0.00000017,0.02508693,0.00002841,0.,-
 0.00002870,0.00003867,0.,0.00001610,-0.00001008,0.,-0.00000297,-0.0000
 2027,0.,0.00000383,-0.00004831,0.,-0.00003013,0.00000584,0.,-0.0000082
 5,-0.00003887,0.,-0.00002817,0.00002611,0.,-0.00000990,-0.00001398,0.,
 -0.00001291,-0.00002315,0.,0.00003883,0.00002004,0.,0.00003543,0.00004
 627,0.,0.00001606,-0.00002251,0.,-0.00003616,0.00005916,0.,-0.00001925
 ,-0.00002584,0.,0.00000267,-0.00000150,0.,-0.00002442,-0.00130026,0.,-
 0.00005504,0.00026188,0.,-0.00068646,0.00003262,0.,0.00011829,0.000701
 04,0.,0.00027010,0.00421296,0.00000001,-0.00294123,0.00002144,0.,-0.00
 000446,-0.00003168,0.,-0.00012764,-0.00000959,0.,0.00005726,-0.0000209
 9,0.,0.00000986,-0.00002224,0.,-0.00000886,-0.00000295,0.,-0.00000420,
 -0.00000032,0.,0.00001135,0.00001031,0.,-0.00001810,-0.00001075,0.,-0.
 00001749,0.00000221,0.,-0.00000518,0.00001263,0.,-0.00002955,0.0000099
 4,0.,0.00001095,-0.00011573,0.,0.00004623,0.00050080,0.,0.00125624,-0.
 01554773,0.00000003,-0.01957409,-0.00000381,0.,0.00000298,0.00000086,0
 .,0.00001669,-0.00001334,0.,0.00000492,0.00001533,0.,0.00000265,0.0000
 0084,0.,0.00001085,0.00000289,0.,-0.00000892,0.00228362,0.,0.00378940,
 -0.11964496,0.00000032,-0.27284253,0.00000510,0.,-0.00001623,0.0000066
 6,0.,0.00001556,0.00000134,0.,-0.00000362,0.00000337,0.,0.00000257,-0.
 00000256,0.,0.00000184,0.00000317,0.,0.00000160,-0.00000695,0.,0.00000
 520,-0.00000118,0.,-0.00000224,0.00018065,0.,0.00008900,0.00016309,0.,
 0.00105792,-0.00000203,0.,-0.00000448,0.00000197,0.,-0.00000459,0.0000
 1090,0.,0.00000059,0.00000562,0.,-0.00000199,-0.00036268,0.,0.00079344
 ,0.12863952,-0.00000035,0.28886968,-0.00316221,0.,0.00427708,0.0003545
 7,0.,0.00072393,0.00008641,0.,0.00008464,0.00025651,0.,-0.00125022,-0.
 00087400,0.,-0.00002094,-0.00013742,0.,-0.00006500,0.00002485,0.,0.000
 01377,0.00001346,0.,0.00005045,-0.00006259,0.,0.00000514,0.00000078,0.
 ,-0.00003350,-0.00002772,0.,-0.00001547,0.00002943,0.,0.00004472,-0.00
 001895,0.,-0.00002364,-0.00003229,0.,0.00002046,0.00004745,0.,-0.00002
 959,0.00004808,0.,0.00002867,-0.00001352,0.,-0.00002663,-0.00000602,0.
 ,-0.00005052,-0.00003730,0.,0.00000089,0.00001284,0.,0.00003408,-0.000
 02981,0.,0.00002754,0.00002134,0.,0.00003258,0.00000222,0.,-0.00000390
 ,-0.00002556,0.,-0.00001945,-0.01942743,0.00000002,-0.01574945,0.00119
 841,0.,0.00045458,0.00002099,0.,-0.00000129,0.00004418,0.,-0.00003204,
 -0.00003259,0.,0.00001150,0.00001380,0.,0.00001141,-0.00000558,0.,0.00
 000339,-0.00002730,0.,0.00001091,-0.00002766,0.,-0.00001130,0.00005631
 ,0.,0.00003253,-0.00001040,0.,-0.00001602,0.00001107,0.,-0.00001588,0.
 00000478,0.,-0.00000542,-0.00000452,0.,-0.00000343,0.00001338,0.,0.000
 00326,-0.00001003,0.,0.00000265,0.00000865,0.,-0.00002101,0.00000830,0
 .,0.00002172,0.00001301,0.,0.00000166,-0.00001166,0.,0.00000311,-0.271
 43966,0.00000016,-0.11949828,0.00367304,0.,0.00232981,0.00105542,0.,0.
 00020090,0.00008454,0.,0.00017642,0.00000488,0.,-0.00000715,-0.0000028
 4,0.,-0.00000089,0.00000194,0.,-0.00000319,0.00000176,0.,0.00000385,0.
 00000256,0.,0.00000383,-0.00000352,0.,0.00000146,0.00000042,0.,0.00001
 090,-0.00000212,0.,0.00000573,-0.00000537,0.,-0.00000246,-0.00000562,0
 .,0.00000245,0.00000213,0.,-0.00000562,-0.00000258,0.,-0.00000532,0.28
 751422,0.,0.00720719,0.00000001,0.,-0.00023048,0.,0.,-0.00062626,0.,0.
 ,0.00110003,0.,0.,-0.00075852,0.,0.,-0.00005700,0.,0.,0.00005676,0.,0.
 ,0.00000958,0.,0.,0.,0.,0.,0.00001365,0.,0.,-0.00000503,0.,0.,-0.00000
 581,0.,0.,0.00000370,0.,0.,-0.00000261,0.,0.,-0.00000262,0.,0.,0.00000
 336,0.,0.,0.00002900,0.,0.,-0.00003127,0.,0.,-0.00001862,0.,0.,0.00000
 271,0.,0.,0.00000101,0.,0.,0.00006096,0.,0.,0.00000200,0.,0.,0.0000001
 3,0.,-0.00000002,0.00192702,-0.00000001,0.,0.00602287,0.00000002,0.,-0
 .00003741,0.,0.,-0.00000444,0.,0.,-0.00000542,0.,0.,-0.00000223,0.,0.,
 0.00000079,0.,0.,0.00000015,0.,0.,-0.00000124,0.,0.,-0.00002693,0.,0.,
 -0.00000288,0.,0.,-0.00000083,0.,0.,0.00004499,0.,0.,-0.00000210,0.,0.
 ,-0.00000425,0.,0.,0.00000015,0.,0.,-0.00000038,0.,0.,-0.00000057,0.,0
 .,-0.00000148,0.,0.,-0.00000130,0.,0.00000016,-0.03418038,0.00000012,0
 .00000004,0.00181757,0.00000002,0.,-0.00402319,0.,0.,0.00031358,0.,0.,
 0.00000722,0.,0.,-0.00000011,0.,0.,0.00000054,0.,0.,0.00000057,0.,0.,0
 .00000271,0.,0.,0.00000021,0.,0.,0.00000258,0.,0.,0.00000110,0.,0.,0.0
 0000015,0.,0.,0.00000055,0.,0.,0.00000139,0.,0.,0.00000077,0.,-0.00000
 017,0.02487745,0.00333693,0.00000001,-0.00149663,0.00104010,0.,-0.0007
 4948,0.00000187,0.,-0.00004041,0.00016372,0.,0.00077750,0.00028694,0.,
 0.00012783,0.00004392,0.,0.00000984,-0.00005853,0.,-0.00002812,0.00005
 188,0.,0.00000043,-0.00006873,0.,0.00003143,0.00000815,0.,-0.00001247,
 -0.00001403,0.,-0.00002689,0.00003436,0.,0.00002249,-0.00002713,0.,-0.
 00001278,-0.00001156,0.,0.00000192,0.00003536,0.,-0.00001742,0.0000355
 8,0.,0.00001793,-0.00005719,0.,-0.00001325,0.00002966,0.,-0.00000254,-
 0.00002034,0.,0.00004354,-0.00000199,0.,0.00000864,-0.00000832,0.,0.00
 001558,0.00003132,0.,-0.00000964,0.00002827,0.,-0.00002155,-0.00002570
 ,0.,0.00000858,0.01574394,-0.00000001,0.01190695,0.00148477,0.00000002
 ,-0.00549057,0.00000700,0.,-0.00001997,-0.00000786,0.,0.00001138,0.000
 00568,0.,0.00000715,0.00000366,0.,0.00000926,-0.00000104,0.,0.00000210
 ,-0.00001890,0.,0.00000455,-0.00001913,0.,-0.00000451,-0.00001596,0.,-
 0.00001574,0.00000994,0.,-0.00000728,0.00000119,0.,-0.00000645,0.00002
 950,0.,0.00006683,-0.00000180,0.,-0.00000173,0.00000647,0.,-0.00000051
 ,-0.00000463,0.,-0.00000508,0.00000724,0.,-0.00001523,0.00000724,0.,0.
 00001533,0.00000106,0.,0.00000281,-0.00000301,0.,0.00000299,-0.1195786
 0,0.00000012,-0.12783448,-0.02952476,0.00000002,-0.01073914,-0.0005108
 3,0.,0.00099741,-0.00148498,0.,-0.00073631,0.00000124,0.,-0.00000108,-
 0.00000131,0.,-0.00000134,0.00000074,0.,-0.00000168,0.00000062,0.,0.00
 000177,-0.00000152,0.,0.00000759,-0.00000199,0.,0.00000055,0.00000176,
 0.,0.00000059,-0.00000158,0.,0.00000227,-0.00000246,0.,-0.00000128,-0.
 00000245,0.,0.00000131,0.00000147,0.,-0.00000199,-0.00000239,0.,-0.000
 00259,0.12865940,-0.00000014,0.13217652,0.00035457,0.,-0.00072393,-0.0
 0316221,0.,-0.00427708,0.00025651,0.,0.00125022,0.00008641,0.,-0.00008
 464,-0.00087400,0.,0.00002094,0.00002134,0.,-0.00003258,-0.00003730,0.
 ,-0.00000089,-0.00000602,0.,0.00005052,-0.00001352,0.,0.00002663,0.000
 01284,0.,-0.00003408,-0.00002981,0.,-0.00002754,0.00000222,0.,0.000003
 90,-0.00002556,0.,0.00001945,-0.00003229,0.,-0.00002046,0.00004808,0.,
 -0.00002867,0.00004745,0.,0.00002959,-0.00006259,0.,-0.00000514,0.0000
 1346,0.,-0.00005045,0.00002485,0.,-0.00001377,0.00000078,0.,0.00003350
 ,-0.00002772,0.,0.00001547,-0.00013742,0.,0.00006500,0.00002943,0.,-0.
 00004472,-0.00001895,0.,0.00002364,0.00119841,0.,-0.00045458,-0.019427
 43,-0.00000002,0.01574945,0.00000478,0.,0.00000542,0.00005631,0.,-0.00
 003253,-0.00001040,0.,0.00001602,0.00001107,0.,0.00001588,-0.00000452,
 0.,0.00000343,-0.00002766,0.,0.00001130,-0.00002730,0.,-0.00001091,0.0
 0004418,0.,0.00003204,-0.00003259,0.,-0.00001150,0.00001380,0.,-0.0000
 1141,0.00002099,0.,0.00000129,-0.00000558,0.,-0.00000339,0.00001301,0.
 ,-0.00000166,-0.00001166,0.,-0.00000311,0.00000830,0.,-0.00002172,0.00
 000865,0.,0.00002101,0.00001338,0.,-0.00000326,-0.00001003,0.,-0.00000
 265,0.00367304,0.,-0.00232981,-0.27143966,-0.00000016,0.11949828,0.000
 08454,0.,-0.00017642,0.00105542,0.,-0.00020090,0.00000256,0.,-0.000003
 83,-0.00000352,0.,-0.00000146,0.00000176,0.,-0.00000385,0.00000194,0.,
 0.00000319,0.00000488,0.,0.00000715,-0.00000284,0.,0.00000089,0.000002
 13,0.,0.00000562,-0.00000258,0.,0.00000532,-0.00000562,0.,-0.00000245,
 -0.00000537,0.,0.00000246,0.00000042,0.,-0.00001090,-0.00000212,0.,-0.
 00000573,0.00081452,0.,0.00037776,0.28751422,0.,-0.00023048,0.,0.,0.00
 720719,0.00000001,0.,0.00110003,0.,0.,-0.00062626,0.,0.,-0.00075852,0.
 ,0.,0.00006096,0.,0.,-0.00001862,0.,0.,-0.00003127,0.,0.,0.00002900,0.
 ,0.,0.00000271,0.,0.,0.00000101,0.,0.,0.00000200,0.,0.,0.00000013,0.,0
 .,-0.00000261,0.,0.,0.00000336,0.,0.,-0.00000262,0.,0.,0.,0.,0.,0.0000
 0958,0.,0.,0.00005676,0.,0.,0.00001365,0.,0.,-0.00000503,0.,0.,-0.0000
 5700,0.,0.,-0.00000581,0.,0.,0.00000370,0.,0.,0.00602287,0.00000002,0.
 00000002,0.00192702,-0.00000001,0.,0.00004499,0.,0.,-0.00002693,0.,0.,
 -0.00000288,0.,0.,-0.00000083,0.,0.,-0.00000210,0.,0.,-0.00000124,0.,0
 .,0.00000015,0.,0.,-0.00000444,0.,0.,-0.00000542,0.,0.,-0.00000223,0.,
 0.,-0.00003741,0.,0.,0.00000079,0.,0.,-0.00000148,0.,0.,-0.00000130,0.
 ,0.,-0.00000057,0.,0.,-0.00000038,0.,0.,-0.00000425,0.,0.,0.00000015,0
 .,-0.00000004,0.00181757,0.00000002,-0.00000016,-0.03418038,0.00000012
 ,0.,0.00031358,0.,0.,-0.00402319,0.,0.,0.00000271,0.,0.,0.00000021,0.,
 0.,0.00000057,0.,0.,0.00000054,0.,0.,0.00000722,0.,0.,-0.00000011,0.,0
 .,0.00000139,0.,0.,0.00000077,0.,0.,0.00000055,0.,0.,0.00000015,0.,0.,
 0.00000258,0.,0.,0.00000110,0.,0.,-0.00347907,0.,0.00000017,0.02487745
 ,-0.00104010,0.,-0.00074948,-0.00333693,0.00000001,-0.00149663,-0.0001
 6372,0.,0.00077750,-0.00000187,0.,-0.00004041,-0.00028694,0.,0.0001278
 3,-0.00003132,0.,-0.00000964,0.00002034,0.,0.00004354,-0.00002966,0.,-
 0.00000254,0.00005719,0.,-0.00001325,0.00000199,0.,0.00000864,0.000008
 32,0.,0.00001558,-0.00002827,0.,-0.00002155,0.00002570,0.,0.00000858,0
 .00001156,0.,0.00000192,-0.00003558,0.,0.00001793,-0.00003536,0.,-0.00
 001742,0.00006873,0.,0.00003143,-0.00005188,0.,0.00000043,0.00005853,0
 .,-0.00002812,-0.00000815,0.,-0.00001247,0.00001403,0.,-0.00002689,-0.
 00004392,0.,0.00000984,-0.00003436,0.,0.00002249,0.00002713,0.,-0.0000
 1278,-0.00148477,0.00000002,-0.00549057,-0.01574394,-0.00000001,0.0119
 0695,-0.00002950,0.,0.00006683,0.00001596,0.,-0.00001574,-0.00000994,0
 .,-0.00000728,-0.00000119,0.,-0.00000645,0.00000180,0.,-0.00000173,0.0
 0001913,0.,-0.00000451,0.00001890,0.,0.00000455,0.00000786,0.,0.000011
 38,-0.00000568,0.,0.00000715,-0.00000366,0.,0.00000926,-0.00000700,0.,
 -0.00001997,0.00000104,0.,0.00000210,-0.00000106,0.,0.00000281,0.00000
 301,0.,0.00000299,-0.00000724,0.,0.00001533,-0.00000724,0.,-0.00001523
 ,-0.00000647,0.,-0.00000051,0.00000463,0.,-0.00000508,0.02952476,0.000
 00002,-0.01073914,0.11957860,0.00000012,-0.12783448,0.00148498,0.,-0.0
 0073631,0.00051083,0.,0.00099741,0.00000152,0.,0.00000759,0.00000199,0
 .,0.00000055,-0.00000062,0.,0.00000177,-0.00000074,0.,-0.00000168,-0.0
 0000124,0.,-0.00000108,0.00000131,0.,-0.00000134,-0.00000147,0.,-0.000
 00199,0.00000239,0.,-0.00000259,0.00000245,0.,0.00000131,0.00000246,0.
 ,-0.00000128,-0.00000176,0.,0.00000059,0.00000158,0.,0.00000227,-0.000
 37776,0.,0.00103509,-0.12865940,-0.00000014,0.13217652\\-0.00000056,0.
 ,0.00006329,-0.00000056,0.,-0.00006329,0.00004629,0.,-0.00003607,0.000
 04629,0.,0.00003607,-0.00004746,0.,0.,0.00000115,0.,0.00013514,-0.0000
 4681,0.,-0.00013475,0.,0.,0.00015261,0.00004681,0.,-0.00013475,-0.0001
 9039,0.,-0.00000069,0.00019039,0.,-0.00000069,-0.00000115,0.,0.0001351
 4,-0.00004629,0.,0.00003607,0.00004746,0.,0.,0.00000056,0.,-0.00006329
 ,0.00000056,0.,0.00006329,0.00004681,0.,0.00013475,0.,0.,-0.00015261,-
 0.00004681,0.,0.00013475,-0.00019039,0.,0.00000069,0.00019039,0.,0.000
 00069,0.00000115,0.,-0.00013514,-0.00000115,0.,-0.00013514,-0.00004629
 ,0.,-0.00003607,-0.00005751,0.,-0.00000634,-0.00005751,0.,0.00000634,-
 0.00001338,0.,-0.00001903,0.,0.,0.00002734,0.00006348,0.,-0.00007573,-
 0.00006348,0.,-0.00007573,0.00001338,0.,-0.00001903,0.00005751,0.,0.00
 000634,0.00005751,0.,-0.00000634,0.,0.,-0.00002734,0.00006348,0.,0.000
 07573,-0.00006348,0.,0.00007573,-0.00001338,0.,0.00001903,0.00001338,0
 .,0.00001903,-0.00011812,0.,0.00000703,0.00011812,0.,0.00000703,-0.000
 02669,0.,0.00008906,-0.00002669,0.,-0.00008906,-0.00011812,0.,-0.00000
 703,0.00011812,0.,-0.00000703,0.00002669,0.,-0.00008906,0.00002669,0.,
 0.00008906,0.00001526,0.,0.00000384,0.00001526,0.,-0.00000384,-0.00001
 435,0.,0.00003134,0.00001435,0.,0.00003134,-0.00001526,0.,-0.00000384,
 -0.00001526,0.,0.00000384,-0.00001435,0.,-0.00003134,0.00001435,0.,-0.
 00003134,0.00001331,0.,0.00000506,-0.00001331,0.,0.00000506,0.00000751
 ,0.,-0.00001678,0.00000751,0.,0.00001678,0.00001331,0.,-0.00000506,-0.
 00001331,0.,-0.00000506,-0.00000751,0.,0.00001678,-0.00000751,0.,-0.00
 001678\\\@


 Boundary, n.  In political geography, an imaginary
 line between two nations, separating the imaginary
 rights of one from the imaginary rights of another.
                               -- Ambrose Bierce
 Job cpu time:  0 days  1 hours 42 minutes 50.9 seconds.
 File lengths (MBytes):  RWF=   1166 Int=      0 D2E=      0 Chk=     28 Scr=      1
 Normal termination of Gaussian 09 at Tue Jan 23 15:41:54 2018.
