 Entering Gaussian System, Link 0=g09
 Input=Tetrabenzoporphyrin_rotated02.inp
 Output=Tetrabenzoporphyrin_rotated02.log
 Initial command:
 /usr/local/g09/l1.exe /home/g09scr/Gau-6295.inp -scrdir=/home/g09scr/
 Entering Link 1 = /usr/local/g09/l1.exe PID=      6297.
  
 Copyright (c) 1988,1990,1992,1993,1995,1998,2003,2009,2010,
            Gaussian, Inc.  All Rights Reserved.
  
 This is part of the Gaussian(R) 09 program.  It is based on
 the Gaussian(R) 03 system (copyright 2003, Gaussian, Inc.),
 the Gaussian(R) 98 system (copyright 1998, Gaussian, Inc.),
 the Gaussian(R) 94 system (copyright 1995, Gaussian, Inc.),
 the Gaussian 92(TM) system (copyright 1992, Gaussian, Inc.),
 the Gaussian 90(TM) system (copyright 1990, Gaussian, Inc.),
 the Gaussian 88(TM) system (copyright 1988, Gaussian, Inc.),
 the Gaussian 86(TM) system (copyright 1986, Carnegie Mellon
 University), and the Gaussian 82(TM) system (copyright 1983,
 Carnegie Mellon University). Gaussian is a federally registered
 trademark of Gaussian, Inc.
  
 This software contains proprietary and confidential information,
 including trade secrets, belonging to Gaussian, Inc.
  
 This software is provided under written license and may be
 used, copied, transmitted, or stored only in accord with that
 written license.
  
 The following legend is applicable only to US Government
 contracts under FAR:
  
                    RESTRICTED RIGHTS LEGEND
  
 Use, reproduction and disclosure by the US Government is
 subject to restrictions as set forth in subparagraphs (a)
 and (c) of the Commercial Computer Software - Restricted
 Rights clause in FAR 52.227-19.
  
 Gaussian, Inc.
 340 Quinnipiac St., Bldg. 40, Wallingford CT 06492
  
  
 ---------------------------------------------------------------
 Warning -- This program may not be used in any manner that
 competes with the business of Gaussian, Inc. or will provide
 assistance to any competitor of Gaussian, Inc.  The licensee
 of this program is prohibited from giving any competitor of
 Gaussian, Inc. access to this program.  By using this program,
 the user acknowledges that Gaussian, Inc. is engaged in the
 business of creating and licensing software in the field of
 computational chemistry and represents and warrants to the
 licensee that it is not a competitor of Gaussian, Inc. and that
 it will not use this program in any manner prohibited above.
 ---------------------------------------------------------------
  

 Cite this work as:
 Gaussian 09, Revision B.01,
 M. J. Frisch, G. W. Trucks, H. B. Schlegel, G. E. Scuseria, 
 M. A. Robb, J. R. Cheeseman, G. Scalmani, V. Barone, B. Mennucci, 
 G. A. Petersson, H. Nakatsuji, M. Caricato, X. Li, H. P. Hratchian, 
 A. F. Izmaylov, J. Bloino, G. Zheng, J. L. Sonnenberg, M. Hada, 
 M. Ehara, K. Toyota, R. Fukuda, J. Hasegawa, M. Ishida, T. Nakajima, 
 Y. Honda, O. Kitao, H. Nakai, T. Vreven, J. A. Montgomery, Jr., 
 J. E. Peralta, F. Ogliaro, M. Bearpark, J. J. Heyd, E. Brothers, 
 K. N. Kudin, V. N. Staroverov, T. Keith, R. Kobayashi, J. Normand, 
 K. Raghavachari, A. Rendell, J. C. Burant, S. S. Iyengar, J. Tomasi, 
 M. Cossi, N. Rega, J. M. Millam, M. Klene, J. E. Knox, J. B. Cross, 
 V. Bakken, C. Adamo, J. Jaramillo, R. Gomperts, R. E. Stratmann, 
 O. Yazyev, A. J. Austin, R. Cammi, C. Pomelli, J. W. Ochterski, 
 R. L. Martin, K. Morokuma, V. G. Zakrzewski, G. A. Voth, 
 P. Salvador, J. J. Dannenberg, S. Dapprich, A. D. Daniels, 
 O. Farkas, J. B. Foresman, J. V. Ortiz, J. Cioslowski, 
 and D. J. Fox, Gaussian, Inc., Wallingford CT, 2010.
 
 ******************************************
 Gaussian 09:  EM64L-G09RevB.01 12-Aug-2010
                22-Jan-2018 
 ******************************************
 %nproc=4
 Will use up to    4 processors via shared memory.
 %mem=60gb
 ----------------------------
 #B3LYP/6-31G* fopt test freq
 ----------------------------
 1/14=-1,18=20,19=15,26=3,38=1/1,3;
 2/9=110,12=2,14=103,17=6,18=5,40=1/2;
 3/5=1,6=6,7=1,11=2,16=1,25=1,30=1,71=1,74=-5/1,2,3;
 4//1;
 5/5=2,38=5/2;
 6/7=2,8=2,9=2,10=2,28=1/1;
 7//1,2,3,16;
 1/14=-1,18=20,19=15/3(2);
 2/9=110/2;
 99//99;
 2/9=110/2;
 3/5=1,6=6,7=1,11=2,16=1,25=1,30=1,71=1,74=-5/1,2,3;
 4/5=5,16=3/1;
 5/5=2,38=5/2;
 7//1,2,3,16;
 1/14=-1,18=20,19=15/3(-5);
 2/9=110/2;
 6/7=2,8=2,9=2,10=2,19=2,28=1/1;
 99/9=1/99;
 ------------------------------------------------------
 RotationSameMolecule/Tetrabenzoporphyrin_rotated02.xyz
 ------------------------------------------------------
 Symbolic Z-matrix:
 Charge =  0 Multiplicity = 1
 C                    -1.72252   2.20555   3.33926 
 C                    -0.65221   1.64098   3.98297 
 C                     0.06147   0.8416    2.98546 
 C                    -1.66182   1.75061   1.94904 
 N                    -0.58277   0.94396   1.79691 
 C                    -2.59156   2.10576   0.93356 
 C                    -2.55661   1.67882  -0.42351 
 N                    -1.62994   0.85977  -0.98027 
 C                    -1.95192   0.69937  -2.288 
 C                    -3.47831   2.04177  -1.39355 
 C                    -3.09926   1.4278   -2.56232 
 C                    -1.23889  -0.08526  -3.23725 
 C                    -0.06147  -0.8416   -2.98546 
 N                     0.58277  -0.94396  -1.79691 
 C                     1.72252  -2.20555  -3.33926 
 C                     0.65221  -1.64098  -3.98297 
 C                     2.55661  -1.67882   0.42351 
 N                     1.62994  -0.85977   0.98027 
 C                     1.95192  -0.69937   2.288 
 C                     3.09926  -1.4278    2.56232 
 C                     3.47831  -2.04177   1.39355 
 C                     1.23889   0.08526   3.23725 
 C                     2.59156  -2.10576  -0.93356 
 C                     1.66182  -1.75061  -1.94904 
 C                    -2.62046   3.03763   4.00837 
 C                    -0.41055   1.87193   5.33745 
 H                    -3.40077   2.76384   1.22694 
 H                    -0.82747   0.43648  -0.49766 
 C                    -4.61099   2.85911  -1.33303 
 C                    -3.82935   1.59304  -3.74313 
 H                    -1.62471  -0.11298  -4.24935 
 C                     2.62046  -3.03763  -4.00837 
 C                     0.41055  -1.87193  -5.33745 
 H                     0.82747  -0.43648   0.49766 
 C                     3.82935  -1.59304   3.74313 
 C                     4.61099  -2.85911   1.33303 
 H                     1.62471   0.11298   4.24935 
 H                     3.40077  -2.76384  -1.22694 
 C                    -5.36246   3.04137  -2.50737 
 C                    -4.97291   2.41038  -3.7085 
 C                     2.4018   -3.28827  -5.37451 
 C                     1.29934  -2.70674  -6.03755 
 C                     4.97291  -2.41038   3.7085 
 C                     5.36246  -3.04137   2.50737 
 C                    -2.4018    3.28827   5.37451 
 C                    -1.29934   2.70674   6.03755 
 H                    -3.46338   3.48078   3.49644 
 H                     0.43507   1.4244    5.84103 
 H                    -4.91108   3.34335  -0.41396 
 H                    -3.53264   1.11058  -4.66424 
 H                     3.46338  -3.48078  -3.49644 
 H                    -0.43507  -1.4244   -5.84103 
 H                     3.53264  -1.11058   4.66424 
 H                     4.91108  -3.34335   0.41396 
 H                    -6.24414   3.66871  -2.49021 
 H                    -5.55747   2.55646  -4.60748 
 H                     3.08142  -3.9296   -5.91995 
 H                     1.13761  -2.90428  -7.08899 
 H                     5.55747  -2.55646   4.60748 
 H                     6.24414  -3.66871   2.49021 
 H                    -3.08142   3.9296    5.91995 
 H                    -1.13761   2.90428   7.08899 
 

 GradGradGradGradGradGradGradGradGradGradGradGradGradGradGradGradGradGrad
 Berny optimization.
 Initialization pass.
                           ----------------------------
                           !    Initial Parameters    !
                           ! (Angstroms and Degrees)  !
 --------------------------                            --------------------------
 ! Name  Definition              Value          Derivative Info.                !
 --------------------------------------------------------------------------------
 ! R1    R(1,2)                  1.3706         estimate D2E/DX2                !
 ! R2    R(1,4)                  1.464          estimate D2E/DX2                !
 ! R3    R(1,25)                 1.3951         estimate D2E/DX2                !
 ! R4    R(2,3)                  1.464          estimate D2E/DX2                !
 ! R5    R(2,26)                 1.3951         estimate D2E/DX2                !
 ! R6    R(3,5)                  1.3558         estimate D2E/DX2                !
 ! R7    R(3,22)                 1.4219         estimate D2E/DX2                !
 ! R8    R(4,5)                  1.3558         estimate D2E/DX2                !
 ! R9    R(4,6)                  1.4219         estimate D2E/DX2                !
 ! R10   R(6,7)                  1.4231         estimate D2E/DX2                !
 ! R11   R(6,27)                 1.0835         estimate D2E/DX2                !
 ! R12   R(7,8)                  1.3563         estimate D2E/DX2                !
 ! R13   R(7,10)                 1.3864         estimate D2E/DX2                !
 ! R14   R(8,9)                  1.3563         estimate D2E/DX2                !
 ! R15   R(8,28)                 1.0276         estimate D2E/DX2                !
 ! R16   R(9,11)                 1.3865         estimate D2E/DX2                !
 ! R17   R(9,12)                 1.4231         estimate D2E/DX2                !
 ! R18   R(10,11)                1.3736         estimate D2E/DX2                !
 ! R19   R(10,29)                1.3981         estimate D2E/DX2                !
 ! R20   R(11,30)                1.3981         estimate D2E/DX2                !
 ! R21   R(12,13)                1.4219         estimate D2E/DX2                !
 ! R22   R(12,31)                1.0835         estimate D2E/DX2                !
 ! R23   R(13,14)                1.3558         estimate D2E/DX2                !
 ! R24   R(13,16)                1.464          estimate D2E/DX2                !
 ! R25   R(14,24)                1.3558         estimate D2E/DX2                !
 ! R26   R(15,16)                1.3706         estimate D2E/DX2                !
 ! R27   R(15,24)                1.464          estimate D2E/DX2                !
 ! R28   R(15,32)                1.3951         estimate D2E/DX2                !
 ! R29   R(16,33)                1.3951         estimate D2E/DX2                !
 ! R30   R(17,18)                1.3563         estimate D2E/DX2                !
 ! R31   R(17,21)                1.3864         estimate D2E/DX2                !
 ! R32   R(17,23)                1.4231         estimate D2E/DX2                !
 ! R33   R(18,19)                1.3563         estimate D2E/DX2                !
 ! R34   R(18,34)                1.0276         estimate D2E/DX2                !
 ! R35   R(19,20)                1.3865         estimate D2E/DX2                !
 ! R36   R(19,22)                1.4231         estimate D2E/DX2                !
 ! R37   R(20,21)                1.3736         estimate D2E/DX2                !
 ! R38   R(20,35)                1.3981         estimate D2E/DX2                !
 ! R39   R(21,36)                1.3981         estimate D2E/DX2                !
 ! R40   R(22,37)                1.0835         estimate D2E/DX2                !
 ! R41   R(23,24)                1.4219         estimate D2E/DX2                !
 ! R42   R(23,38)                1.0835         estimate D2E/DX2                !
 ! R43   R(25,45)                1.406          estimate D2E/DX2                !
 ! R44   R(25,47)                1.0812         estimate D2E/DX2                !
 ! R45   R(26,46)                1.4061         estimate D2E/DX2                !
 ! R46   R(26,48)                1.0812         estimate D2E/DX2                !
 ! R47   R(29,39)                1.4061         estimate D2E/DX2                !
 ! R48   R(29,49)                1.0813         estimate D2E/DX2                !
 ! R49   R(30,40)                1.406          estimate D2E/DX2                !
 ! R50   R(30,50)                1.0813         estimate D2E/DX2                !
 ! R51   R(32,41)                1.406          estimate D2E/DX2                !
 ! R52   R(32,51)                1.0812         estimate D2E/DX2                !
 ! R53   R(33,42)                1.4061         estimate D2E/DX2                !
 ! R54   R(33,52)                1.0812         estimate D2E/DX2                !
 ! R55   R(35,43)                1.406          estimate D2E/DX2                !
 ! R56   R(35,53)                1.0813         estimate D2E/DX2                !
 ! R57   R(36,44)                1.4061         estimate D2E/DX2                !
 ! R58   R(36,54)                1.0813         estimate D2E/DX2                !
 ! R59   R(39,40)                1.4116         estimate D2E/DX2                !
 ! R60   R(39,55)                1.0822         estimate D2E/DX2                !
 ! R61   R(40,56)                1.0822         estimate D2E/DX2                !
 ! R62   R(41,42)                1.4118         estimate D2E/DX2                !
 ! R63   R(41,57)                1.082          estimate D2E/DX2                !
 ! R64   R(42,58)                1.082          estimate D2E/DX2                !
 ! R65   R(43,44)                1.4116         estimate D2E/DX2                !
 ! R66   R(43,59)                1.0822         estimate D2E/DX2                !
 ! R67   R(44,60)                1.0822         estimate D2E/DX2                !
 ! R68   R(45,46)                1.4118         estimate D2E/DX2                !
 ! R69   R(45,61)                1.082          estimate D2E/DX2                !
 ! R70   R(46,62)                1.082          estimate D2E/DX2                !
 ! A1    A(2,1,4)              106.5942         estimate D2E/DX2                !
 ! A2    A(2,1,25)             121.5351         estimate D2E/DX2                !
 ! A3    A(4,1,25)             131.8706         estimate D2E/DX2                !
 ! A4    A(1,2,3)              106.5936         estimate D2E/DX2                !
 ! A5    A(1,2,26)             121.5361         estimate D2E/DX2                !
 ! A6    A(3,2,26)             131.8703         estimate D2E/DX2                !
 ! A7    A(2,3,5)              108.9312         estimate D2E/DX2                !
 ! A8    A(2,3,22)             124.9913         estimate D2E/DX2                !
 ! A9    A(5,3,22)             126.0774         estimate D2E/DX2                !
 ! A10   A(1,4,5)              108.9312         estimate D2E/DX2                !
 ! A11   A(1,4,6)              124.9913         estimate D2E/DX2                !
 ! A12   A(5,4,6)              126.0775         estimate D2E/DX2                !
 ! A13   A(3,5,4)              108.9498         estimate D2E/DX2                !
 ! A14   A(4,6,7)              126.1615         estimate D2E/DX2                !
 ! A15   A(4,6,27)             116.5303         estimate D2E/DX2                !
 ! A16   A(7,6,27)             117.3082         estimate D2E/DX2                !
 ! A17   A(6,7,8)              126.1153         estimate D2E/DX2                !
 ! A18   A(6,7,10)             124.9136         estimate D2E/DX2                !
 ! A19   A(8,7,10)             108.9711         estimate D2E/DX2                !
 ! A20   A(7,8,9)              107.7592         estimate D2E/DX2                !
 ! A21   A(7,8,28)             126.1206         estimate D2E/DX2                !
 ! A22   A(9,8,28)             126.1202         estimate D2E/DX2                !
 ! A23   A(8,9,11)             108.971          estimate D2E/DX2                !
 ! A24   A(8,9,12)             126.1155         estimate D2E/DX2                !
 ! A25   A(11,9,12)            124.9135         estimate D2E/DX2                !
 ! A26   A(7,10,11)            107.1497         estimate D2E/DX2                !
 ! A27   A(7,10,29)            131.4024         estimate D2E/DX2                !
 ! A28   A(11,10,29)           121.4479         estimate D2E/DX2                !
 ! A29   A(9,11,10)            107.149          estimate D2E/DX2                !
 ! A30   A(9,11,30)            131.4028         estimate D2E/DX2                !
 ! A31   A(10,11,30)           121.4482         estimate D2E/DX2                !
 ! A32   A(9,12,13)            126.1617         estimate D2E/DX2                !
 ! A33   A(9,12,31)            117.3082         estimate D2E/DX2                !
 ! A34   A(13,12,31)           116.5301         estimate D2E/DX2                !
 ! A35   A(12,13,14)           126.0774         estimate D2E/DX2                !
 ! A36   A(12,13,16)           124.9913         estimate D2E/DX2                !
 ! A37   A(14,13,16)           108.9312         estimate D2E/DX2                !
 ! A38   A(13,14,24)           108.9498         estimate D2E/DX2                !
 ! A39   A(16,15,24)           106.5942         estimate D2E/DX2                !
 ! A40   A(16,15,32)           121.5351         estimate D2E/DX2                !
 ! A41   A(24,15,32)           131.8706         estimate D2E/DX2                !
 ! A42   A(13,16,15)           106.5936         estimate D2E/DX2                !
 ! A43   A(13,16,33)           131.8703         estimate D2E/DX2                !
 ! A44   A(15,16,33)           121.5361         estimate D2E/DX2                !
 ! A45   A(18,17,21)           108.9711         estimate D2E/DX2                !
 ! A46   A(18,17,23)           126.1153         estimate D2E/DX2                !
 ! A47   A(21,17,23)           124.9136         estimate D2E/DX2                !
 ! A48   A(17,18,19)           107.7592         estimate D2E/DX2                !
 ! A49   A(17,18,34)           126.1206         estimate D2E/DX2                !
 ! A50   A(19,18,34)           126.1202         estimate D2E/DX2                !
 ! A51   A(18,19,20)           108.971          estimate D2E/DX2                !
 ! A52   A(18,19,22)           126.1155         estimate D2E/DX2                !
 ! A53   A(20,19,22)           124.9135         estimate D2E/DX2                !
 ! A54   A(19,20,21)           107.149          estimate D2E/DX2                !
 ! A55   A(19,20,35)           131.4028         estimate D2E/DX2                !
 ! A56   A(21,20,35)           121.4482         estimate D2E/DX2                !
 ! A57   A(17,21,20)           107.1497         estimate D2E/DX2                !
 ! A58   A(17,21,36)           131.4024         estimate D2E/DX2                !
 ! A59   A(20,21,36)           121.4479         estimate D2E/DX2                !
 ! A60   A(3,22,19)            126.1617         estimate D2E/DX2                !
 ! A61   A(3,22,37)            116.5301         estimate D2E/DX2                !
 ! A62   A(19,22,37)           117.3082         estimate D2E/DX2                !
 ! A63   A(17,23,24)           126.1615         estimate D2E/DX2                !
 ! A64   A(17,23,38)           117.3082         estimate D2E/DX2                !
 ! A65   A(24,23,38)           116.5303         estimate D2E/DX2                !
 ! A66   A(14,24,15)           108.9312         estimate D2E/DX2                !
 ! A67   A(14,24,23)           126.0775         estimate D2E/DX2                !
 ! A68   A(15,24,23)           124.9913         estimate D2E/DX2                !
 ! A69   A(1,25,45)            118.1784         estimate D2E/DX2                !
 ! A70   A(1,25,47)            121.2757         estimate D2E/DX2                !
 ! A71   A(45,25,47)           120.5459         estimate D2E/DX2                !
 ! A72   A(2,26,46)            118.1776         estimate D2E/DX2                !
 ! A73   A(2,26,48)            121.2758         estimate D2E/DX2                !
 ! A74   A(46,26,48)           120.5466         estimate D2E/DX2                !
 ! A75   A(10,29,39)           118.2043         estimate D2E/DX2                !
 ! A76   A(10,29,49)           121.5629         estimate D2E/DX2                !
 ! A77   A(39,29,49)           120.2328         estimate D2E/DX2                !
 ! A78   A(11,30,40)           118.2045         estimate D2E/DX2                !
 ! A79   A(11,30,50)           121.5626         estimate D2E/DX2                !
 ! A80   A(40,30,50)           120.2329         estimate D2E/DX2                !
 ! A81   A(15,32,41)           118.1784         estimate D2E/DX2                !
 ! A82   A(15,32,51)           121.2757         estimate D2E/DX2                !
 ! A83   A(41,32,51)           120.5459         estimate D2E/DX2                !
 ! A84   A(16,33,42)           118.1776         estimate D2E/DX2                !
 ! A85   A(16,33,52)           121.2758         estimate D2E/DX2                !
 ! A86   A(42,33,52)           120.5466         estimate D2E/DX2                !
 ! A87   A(20,35,43)           118.2045         estimate D2E/DX2                !
 ! A88   A(20,35,53)           121.5626         estimate D2E/DX2                !
 ! A89   A(43,35,53)           120.2329         estimate D2E/DX2                !
 ! A90   A(21,36,44)           118.2043         estimate D2E/DX2                !
 ! A91   A(21,36,54)           121.5629         estimate D2E/DX2                !
 ! A92   A(44,36,54)           120.2328         estimate D2E/DX2                !
 ! A93   A(29,39,40)           120.3473         estimate D2E/DX2                !
 ! A94   A(29,39,55)           119.8222         estimate D2E/DX2                !
 ! A95   A(40,39,55)           119.8305         estimate D2E/DX2                !
 ! A96   A(30,40,39)           120.3477         estimate D2E/DX2                !
 ! A97   A(30,40,56)           119.8225         estimate D2E/DX2                !
 ! A98   A(39,40,56)           119.8298         estimate D2E/DX2                !
 ! A99   A(32,41,42)           120.2862         estimate D2E/DX2                !
 ! A100  A(32,41,57)           119.8532         estimate D2E/DX2                !
 ! A101  A(42,41,57)           119.8605         estimate D2E/DX2                !
 ! A102  A(33,42,41)           120.2865         estimate D2E/DX2                !
 ! A103  A(33,42,58)           119.8526         estimate D2E/DX2                !
 ! A104  A(41,42,58)           119.861          estimate D2E/DX2                !
 ! A105  A(35,43,44)           120.3477         estimate D2E/DX2                !
 ! A106  A(35,43,59)           119.8225         estimate D2E/DX2                !
 ! A107  A(44,43,59)           119.8298         estimate D2E/DX2                !
 ! A108  A(36,44,43)           120.3473         estimate D2E/DX2                !
 ! A109  A(36,44,60)           119.8222         estimate D2E/DX2                !
 ! A110  A(43,44,60)           119.8305         estimate D2E/DX2                !
 ! A111  A(25,45,46)           120.2862         estimate D2E/DX2                !
 ! A112  A(25,45,61)           119.8532         estimate D2E/DX2                !
 ! A113  A(46,45,61)           119.8605         estimate D2E/DX2                !
 ! A114  A(26,46,45)           120.2865         estimate D2E/DX2                !
 ! A115  A(26,46,62)           119.8526         estimate D2E/DX2                !
 ! A116  A(45,46,62)           119.861          estimate D2E/DX2                !
 ! D1    D(4,1,2,3)             -0.0001         estimate D2E/DX2                !
 ! D2    D(4,1,2,26)          -179.9999         estimate D2E/DX2                !
 ! D3    D(25,1,2,3)          -179.9999         estimate D2E/DX2                !
 ! D4    D(25,1,2,26)            0.0003         estimate D2E/DX2                !
 ! D5    D(2,1,4,5)              0.0002         estimate D2E/DX2                !
 ! D6    D(2,1,4,6)            179.9997         estimate D2E/DX2                !
 ! D7    D(25,1,4,5)           179.9999         estimate D2E/DX2                !
 ! D8    D(25,1,4,6)            -0.0005         estimate D2E/DX2                !
 ! D9    D(2,1,25,45)           -0.0002         estimate D2E/DX2                !
 ! D10   D(2,1,25,47)         -180.0            estimate D2E/DX2                !
 ! D11   D(4,1,25,45)         -180.0            estimate D2E/DX2                !
 ! D12   D(4,1,25,47)            0.0003         estimate D2E/DX2                !
 ! D13   D(1,2,3,5)              0.0            estimate D2E/DX2                !
 ! D14   D(1,2,3,22)          -180.0            estimate D2E/DX2                !
 ! D15   D(26,2,3,5)           179.9998         estimate D2E/DX2                !
 ! D16   D(26,2,3,22)           -0.0002         estimate D2E/DX2                !
 ! D17   D(1,2,26,46)           -0.0004         estimate D2E/DX2                !
 ! D18   D(1,2,26,48)         -180.0            estimate D2E/DX2                !
 ! D19   D(3,2,26,46)          179.9999         estimate D2E/DX2                !
 ! D20   D(3,2,26,48)            0.0002         estimate D2E/DX2                !
 ! D21   D(2,3,5,4)              0.0001         estimate D2E/DX2                !
 ! D22   D(22,3,5,4)          -179.9999         estimate D2E/DX2                !
 ! D23   D(2,3,22,19)          179.9998         estimate D2E/DX2                !
 ! D24   D(2,3,22,37)           -0.0001         estimate D2E/DX2                !
 ! D25   D(5,3,22,19)           -0.0001         estimate D2E/DX2                !
 ! D26   D(5,3,22,37)          180.0            estimate D2E/DX2                !
 ! D27   D(1,4,5,3)             -0.0002         estimate D2E/DX2                !
 ! D28   D(6,4,5,3)           -179.9998         estimate D2E/DX2                !
 ! D29   D(1,4,6,7)           -180.0            estimate D2E/DX2                !
 ! D30   D(1,4,6,27)             0.0004         estimate D2E/DX2                !
 ! D31   D(5,4,6,7)             -0.0005         estimate D2E/DX2                !
 ! D32   D(5,4,6,27)           179.9999         estimate D2E/DX2                !
 ! D33   D(4,6,7,8)              0.0006         estimate D2E/DX2                !
 ! D34   D(4,6,7,10)          -179.9999         estimate D2E/DX2                !
 ! D35   D(27,6,7,8)          -179.9998         estimate D2E/DX2                !
 ! D36   D(27,6,7,10)           -0.0003         estimate D2E/DX2                !
 ! D37   D(6,7,8,9)           -179.9999         estimate D2E/DX2                !
 ! D38   D(6,7,8,28)            -0.0006         estimate D2E/DX2                !
 ! D39   D(10,7,8,9)             0.0005         estimate D2E/DX2                !
 ! D40   D(10,7,8,28)          179.9999         estimate D2E/DX2                !
 ! D41   D(6,7,10,11)          179.9999         estimate D2E/DX2                !
 ! D42   D(6,7,10,29)            0.0001         estimate D2E/DX2                !
 ! D43   D(8,7,10,11)           -0.0005         estimate D2E/DX2                !
 ! D44   D(8,7,10,29)          179.9997         estimate D2E/DX2                !
 ! D45   D(7,8,9,11)            -0.0003         estimate D2E/DX2                !
 ! D46   D(7,8,9,12)          -179.9999         estimate D2E/DX2                !
 ! D47   D(28,8,9,11)         -179.9996         estimate D2E/DX2                !
 ! D48   D(28,8,9,12)            0.0008         estimate D2E/DX2                !
 ! D49   D(8,9,11,10)            0.0            estimate D2E/DX2                !
 ! D50   D(8,9,11,30)         -179.9996         estimate D2E/DX2                !
 ! D51   D(12,9,11,10)         179.9995         estimate D2E/DX2                !
 ! D52   D(12,9,11,30)           0.0            estimate D2E/DX2                !
 ! D53   D(8,9,12,13)           -0.0005         estimate D2E/DX2                !
 ! D54   D(8,9,12,31)          179.9996         estimate D2E/DX2                !
 ! D55   D(11,9,12,13)         180.0            estimate D2E/DX2                !
 ! D56   D(11,9,12,31)           0.0001         estimate D2E/DX2                !
 ! D57   D(7,10,11,9)            0.0004         estimate D2E/DX2                !
 ! D58   D(7,10,11,30)         179.9999         estimate D2E/DX2                !
 ! D59   D(29,10,11,9)        -179.9999         estimate D2E/DX2                !
 ! D60   D(29,10,11,30)         -0.0003         estimate D2E/DX2                !
 ! D61   D(7,10,29,39)         179.9995         estimate D2E/DX2                !
 ! D62   D(7,10,29,49)           0.0003         estimate D2E/DX2                !
 ! D63   D(11,10,29,39)         -0.0002         estimate D2E/DX2                !
 ! D64   D(11,10,29,49)       -179.9994         estimate D2E/DX2                !
 ! D65   D(9,11,30,40)         179.9996         estimate D2E/DX2                !
 ! D66   D(9,11,30,50)           0.0002         estimate D2E/DX2                !
 ! D67   D(10,11,30,40)          0.0001         estimate D2E/DX2                !
 ! D68   D(10,11,30,50)       -179.9993         estimate D2E/DX2                !
 ! D69   D(9,12,13,14)           0.0001         estimate D2E/DX2                !
 ! D70   D(9,12,13,16)        -179.9998         estimate D2E/DX2                !
 ! D71   D(31,12,13,14)       -180.0            estimate D2E/DX2                !
 ! D72   D(31,12,13,16)          0.0001         estimate D2E/DX2                !
 ! D73   D(12,13,14,24)        179.9999         estimate D2E/DX2                !
 ! D74   D(16,13,14,24)         -0.0001         estimate D2E/DX2                !
 ! D75   D(12,13,16,15)        180.0            estimate D2E/DX2                !
 ! D76   D(12,13,16,33)          0.0002         estimate D2E/DX2                !
 ! D77   D(14,13,16,15)          0.0            estimate D2E/DX2                !
 ! D78   D(14,13,16,33)       -179.9998         estimate D2E/DX2                !
 ! D79   D(13,14,24,15)          0.0002         estimate D2E/DX2                !
 ! D80   D(13,14,24,23)        179.9998         estimate D2E/DX2                !
 ! D81   D(24,15,16,13)          0.0001         estimate D2E/DX2                !
 ! D82   D(24,15,16,33)        179.9999         estimate D2E/DX2                !
 ! D83   D(32,15,16,13)        179.9999         estimate D2E/DX2                !
 ! D84   D(32,15,16,33)         -0.0003         estimate D2E/DX2                !
 ! D85   D(16,15,24,14)         -0.0002         estimate D2E/DX2                !
 ! D86   D(16,15,24,23)       -179.9997         estimate D2E/DX2                !
 ! D87   D(32,15,24,14)       -179.9999         estimate D2E/DX2                !
 ! D88   D(32,15,24,23)          0.0005         estimate D2E/DX2                !
 ! D89   D(16,15,32,41)          0.0002         estimate D2E/DX2                !
 ! D90   D(16,15,32,51)        180.0            estimate D2E/DX2                !
 ! D91   D(24,15,32,41)        180.0            estimate D2E/DX2                !
 ! D92   D(24,15,32,51)         -0.0003         estimate D2E/DX2                !
 ! D93   D(13,16,33,42)       -179.9999         estimate D2E/DX2                !
 ! D94   D(13,16,33,52)         -0.0002         estimate D2E/DX2                !
 ! D95   D(15,16,33,42)          0.0004         estimate D2E/DX2                !
 ! D96   D(15,16,33,52)        180.0            estimate D2E/DX2                !
 ! D97   D(21,17,18,19)         -0.0005         estimate D2E/DX2                !
 ! D98   D(21,17,18,34)       -179.9999         estimate D2E/DX2                !
 ! D99   D(23,17,18,19)        179.9999         estimate D2E/DX2                !
 ! D100  D(23,17,18,34)          0.0006         estimate D2E/DX2                !
 ! D101  D(18,17,21,20)          0.0005         estimate D2E/DX2                !
 ! D102  D(18,17,21,36)       -179.9997         estimate D2E/DX2                !
 ! D103  D(23,17,21,20)       -179.9999         estimate D2E/DX2                !
 ! D104  D(23,17,21,36)         -0.0001         estimate D2E/DX2                !
 ! D105  D(18,17,23,24)         -0.0006         estimate D2E/DX2                !
 ! D106  D(18,17,23,38)        179.9998         estimate D2E/DX2                !
 ! D107  D(21,17,23,24)        179.9999         estimate D2E/DX2                !
 ! D108  D(21,17,23,38)          0.0003         estimate D2E/DX2                !
 ! D109  D(17,18,19,20)          0.0003         estimate D2E/DX2                !
 ! D110  D(17,18,19,22)        179.9999         estimate D2E/DX2                !
 ! D111  D(34,18,19,20)        179.9996         estimate D2E/DX2                !
 ! D112  D(34,18,19,22)         -0.0008         estimate D2E/DX2                !
 ! D113  D(18,19,20,21)          0.0            estimate D2E/DX2                !
 ! D114  D(18,19,20,35)        179.9996         estimate D2E/DX2                !
 ! D115  D(22,19,20,21)       -179.9995         estimate D2E/DX2                !
 ! D116  D(22,19,20,35)          0.0            estimate D2E/DX2                !
 ! D117  D(18,19,22,3)           0.0005         estimate D2E/DX2                !
 ! D118  D(18,19,22,37)       -179.9996         estimate D2E/DX2                !
 ! D119  D(20,19,22,3)        -180.0            estimate D2E/DX2                !
 ! D120  D(20,19,22,37)         -0.0001         estimate D2E/DX2                !
 ! D121  D(19,20,21,17)         -0.0004         estimate D2E/DX2                !
 ! D122  D(19,20,21,36)        179.9999         estimate D2E/DX2                !
 ! D123  D(35,20,21,17)       -179.9999         estimate D2E/DX2                !
 ! D124  D(35,20,21,36)          0.0003         estimate D2E/DX2                !
 ! D125  D(19,20,35,43)       -179.9996         estimate D2E/DX2                !
 ! D126  D(19,20,35,53)         -0.0002         estimate D2E/DX2                !
 ! D127  D(21,20,35,43)         -0.0001         estimate D2E/DX2                !
 ! D128  D(21,20,35,53)        179.9993         estimate D2E/DX2                !
 ! D129  D(17,21,36,44)       -179.9995         estimate D2E/DX2                !
 ! D130  D(17,21,36,54)         -0.0003         estimate D2E/DX2                !
 ! D131  D(20,21,36,44)          0.0002         estimate D2E/DX2                !
 ! D132  D(20,21,36,54)        179.9994         estimate D2E/DX2                !
 ! D133  D(17,23,24,14)          0.0005         estimate D2E/DX2                !
 ! D134  D(17,23,24,15)        180.0            estimate D2E/DX2                !
 ! D135  D(38,23,24,14)       -179.9999         estimate D2E/DX2                !
 ! D136  D(38,23,24,15)         -0.0004         estimate D2E/DX2                !
 ! D137  D(1,25,45,46)           0.0002         estimate D2E/DX2                !
 ! D138  D(1,25,45,61)        -179.9996         estimate D2E/DX2                !
 ! D139  D(47,25,45,46)       -180.0            estimate D2E/DX2                !
 ! D140  D(47,25,45,61)          0.0001         estimate D2E/DX2                !
 ! D141  D(2,26,46,45)           0.0004         estimate D2E/DX2                !
 ! D142  D(2,26,46,62)        -179.9996         estimate D2E/DX2                !
 ! D143  D(48,26,46,45)        180.0            estimate D2E/DX2                !
 ! D144  D(48,26,46,62)          0.0            estimate D2E/DX2                !
 ! D145  D(10,29,39,40)          0.0008         estimate D2E/DX2                !
 ! D146  D(10,29,39,55)        179.9999         estimate D2E/DX2                !
 ! D147  D(49,29,39,40)       -180.0            estimate D2E/DX2                !
 ! D148  D(49,29,39,55)         -0.0009         estimate D2E/DX2                !
 ! D149  D(11,30,40,39)          0.0005         estimate D2E/DX2                !
 ! D150  D(11,30,40,56)        179.9997         estimate D2E/DX2                !
 ! D151  D(50,30,40,39)        179.9999         estimate D2E/DX2                !
 ! D152  D(50,30,40,56)         -0.0009         estimate D2E/DX2                !
 ! D153  D(15,32,41,42)         -0.0002         estimate D2E/DX2                !
 ! D154  D(15,32,41,57)        179.9996         estimate D2E/DX2                !
 ! D155  D(51,32,41,42)        180.0            estimate D2E/DX2                !
 ! D156  D(51,32,41,57)         -0.0001         estimate D2E/DX2                !
 ! D157  D(16,33,42,41)         -0.0004         estimate D2E/DX2                !
 ! D158  D(16,33,42,58)        179.9996         estimate D2E/DX2                !
 ! D159  D(52,33,42,41)        180.0            estimate D2E/DX2                !
 ! D160  D(52,33,42,58)          0.0            estimate D2E/DX2                !
 ! D161  D(20,35,43,44)         -0.0005         estimate D2E/DX2                !
 ! D162  D(20,35,43,59)       -179.9997         estimate D2E/DX2                !
 ! D163  D(53,35,43,44)       -179.9999         estimate D2E/DX2                !
 ! D164  D(53,35,43,59)          0.0009         estimate D2E/DX2                !
 ! D165  D(21,36,44,43)         -0.0008         estimate D2E/DX2                !
 ! D166  D(21,36,44,60)       -179.9999         estimate D2E/DX2                !
 ! D167  D(54,36,44,43)        180.0            estimate D2E/DX2                !
 ! D168  D(54,36,44,60)          0.0009         estimate D2E/DX2                !
 ! D169  D(29,39,40,30)         -0.001          estimate D2E/DX2                !
 ! D170  D(29,39,40,56)        179.9998         estimate D2E/DX2                !
 ! D171  D(55,39,40,30)        179.9999         estimate D2E/DX2                !
 ! D172  D(55,39,40,56)          0.0007         estimate D2E/DX2                !
 ! D173  D(32,41,42,33)          0.0003         estimate D2E/DX2                !
 ! D174  D(32,41,42,58)       -179.9997         estimate D2E/DX2                !
 ! D175  D(57,41,42,33)       -179.9996         estimate D2E/DX2                !
 ! D176  D(57,41,42,58)          0.0005         estimate D2E/DX2                !
 ! D177  D(35,43,44,36)          0.001          estimate D2E/DX2                !
 ! D178  D(35,43,44,60)       -179.9999         estimate D2E/DX2                !
 ! D179  D(59,43,44,36)       -179.9998         estimate D2E/DX2                !
 ! D180  D(59,43,44,60)         -0.0007         estimate D2E/DX2                !
 ! D181  D(25,45,46,26)         -0.0003         estimate D2E/DX2                !
 ! D182  D(25,45,46,62)        179.9997         estimate D2E/DX2                !
 ! D183  D(61,45,46,26)        179.9996         estimate D2E/DX2                !
 ! D184  D(61,45,46,62)         -0.0005         estimate D2E/DX2                !
 --------------------------------------------------------------------------------
 Trust Radius=3.00D-01 FncErr=1.00D-07 GrdErr=1.00D-06
 Number of steps in this run=    372 maximum allowed number of steps=    372.
 GradGradGradGradGradGradGradGradGradGradGradGradGradGradGradGradGradGrad

 Stoichiometry    C36H22N4
 Framework group  CI[X(C36H22N4)]
 Deg. of freedom    90
 Full point group                 CI      NOp   2
 Largest Abelian subgroup         CI      NOp   2
 Largest concise Abelian subgroup CI      NOp   2
                         Standard orientation:                         
 ---------------------------------------------------------------------
 Center     Atomic      Atomic             Coordinates (Angstroms)
 Number     Number       Type             X           Y           Z
 ---------------------------------------------------------------------
      1          6           0       -1.722520    2.205550    3.339260
      2          6           0       -0.652210    1.640980    3.982970
      3          6           0        0.061475    0.841596    2.985460
      4          6           0       -1.661820    1.750610    1.949040
      5          7           0       -0.582771    0.943958    1.796910
      6          6           0       -2.591560    2.105760    0.933555
      7          6           0       -2.556610    1.678820   -0.423514
      8          7           0       -1.629940    0.859766   -0.980271
      9          6           0       -1.951920    0.699365   -2.288000
     10          6           0       -3.478310    2.041770   -1.393550
     11          6           0       -3.099260    1.427800   -2.562320
     12          6           0       -1.238890   -0.085257   -3.237250
     13          6           0       -0.061475   -0.841596   -2.985460
     14          7           0        0.582771   -0.943958   -1.796910
     15          6           0        1.722520   -2.205550   -3.339260
     16          6           0        0.652210   -1.640980   -3.982970
     17          6           0        2.556610   -1.678820    0.423514
     18          7           0        1.629940   -0.859766    0.980271
     19          6           0        1.951920   -0.699365    2.288000
     20          6           0        3.099260   -1.427800    2.562320
     21          6           0        3.478310   -2.041770    1.393550
     22          6           0        1.238890    0.085257    3.237250
     23          6           0        2.591560   -2.105760   -0.933555
     24          6           0        1.661820   -1.750610   -1.949040
     25          6           0       -2.620460    3.037630    4.008370
     26          6           0       -0.410551    1.871930    5.337450
     27          1           0       -3.400770    2.763840    1.226940
     28          1           0       -0.827470    0.436478   -0.497655
     29          6           0       -4.610990    2.859110   -1.333030
     30          6           0       -3.829350    1.593040   -3.743130
     31          1           0       -1.624710   -0.112978   -4.249350
     32          6           0        2.620460   -3.037630   -4.008370
     33          6           0        0.410551   -1.871930   -5.337450
     34          1           0        0.827470   -0.436478    0.497655
     35          6           0        3.829350   -1.593040    3.743130
     36          6           0        4.610990   -2.859110    1.333030
     37          1           0        1.624710    0.112978    4.249350
     38          1           0        3.400770   -2.763840   -1.226940
     39          6           0       -5.362460    3.041370   -2.507370
     40          6           0       -4.972910    2.410380   -3.708500
     41          6           0        2.401800   -3.288270   -5.374510
     42          6           0        1.299340   -2.706740   -6.037550
     43          6           0        4.972910   -2.410380    3.708500
     44          6           0        5.362460   -3.041370    2.507370
     45          6           0       -2.401800    3.288270    5.374510
     46          6           0       -1.299340    2.706740    6.037550
     47          1           0       -3.463380    3.480780    3.496440
     48          1           0        0.435068    1.424400    5.841030
     49          1           0       -4.911080    3.343350   -0.413957
     50          1           0       -3.532640    1.110580   -4.664240
     51          1           0        3.463380   -3.480780   -3.496440
     52          1           0       -0.435068   -1.424400   -5.841030
     53          1           0        3.532640   -1.110580    4.664240
     54          1           0        4.911080   -3.343350    0.413957
     55          1           0       -6.244140    3.668710   -2.490210
     56          1           0       -5.557470    2.556460   -4.607480
     57          1           0        3.081420   -3.929600   -5.919950
     58          1           0        1.137610   -2.904280   -7.088990
     59          1           0        5.557470   -2.556460    4.607480
     60          1           0        6.244140   -3.668710    2.490210
     61          1           0       -3.081420    3.929600    5.919950
     62          1           0       -1.137610    2.904280    7.088990
 ---------------------------------------------------------------------
 Rotational constants (GHZ):      0.0872744      0.0850525      0.0430746
 Standard basis: 6-31G(d) (6D, 7F)
 There are   322 symmetry adapted basis functions of AG  symmetry.
 There are   322 symmetry adapted basis functions of AU  symmetry.
 Integral buffers will be    131072 words long.
 Raffenetti 2 integral format.
 Two-electron integral symmetry is turned on.
   644 basis functions,  1208 primitive gaussians,   644 cartesian basis functions
   133 alpha electrons      133 beta electrons
       nuclear repulsion energy      3982.0447579494 Hartrees.
 NAtoms=   62 NActive=   62 NUniq=   31 SFac= 4.00D+00 NAtFMM=   50 NAOKFM=T Big=F
 One-electron integrals computed using PRISM.
 NBasis=   644 RedAO= T  NBF=   322   322
 NBsUse=   644 1.00D-06 NBFU=   322   322
 Harris functional with IExCor=  402 diagonalized for initial guess.
 ExpMin= 1.61D-01 ExpMax= 4.17D+03 ExpMxC= 6.27D+02 IAcc=1 IRadAn=         1 AccDes= 0.00D+00
 HarFok:  IExCor=  402 AccDes= 0.00D+00 IRadAn=         1 IDoV= 1
 ScaDFX=  1.000000  1.000000  1.000000  1.000000
 FoFCou: FMM=F IPFlag=           0 FMFlag=      100000 FMFlg1=        2000
         NFxFlg=           0 DoJE=T BraDBF=F KetDBF=T FulRan=T
         Omega=  0.000000  0.000000  1.000000  0.000000  0.000000 ICntrl=     500 IOpCl=  0
         NMat0=    1 NMatS0=    1 NMatT0=    0 NMatD0=    1 NMtDS0=    0 NMtDT0=    0
         I1Cent=           4 NGrid=           0.
 Petite list used in FoFCou.
 Initial guess orbital symmetries:
       Occupied  (AU) (AG) (AG) (AU) (AU) (AG) (AG) (AU) (AU) (AG)
                 (AG) (AU) (AU) (AG) (AG) (AU) (AU) (AG) (AU) (AG)
                 (AG) (AU) (AG) (AU) (AG) (AU) (AG) (AU) (AU) (AG)
                 (AU) (AG) (AU) (AG) (AU) (AG) (AG) (AU) (AG) (AU)
                 (AG) (AU) (AU) (AG) (AG) (AU) (AU) (AG) (AG) (AU)
                 (AU) (AG) (AU) (AG) (AU) (AG) (AG) (AU) (AU) (AG)
                 (AG) (AU) (AU) (AG) (AU) (AU) (AG) (AG) (AU) (AG)
                 (AU) (AG) (AG) (AG) (AU) (AU) (AG) (AU) (AU) (AG)
                 (AG) (AU) (AU) (AG) (AG) (AU) (AU) (AG) (AU) (AG)
                 (AG) (AU) (AG) (AU) (AG) (AU) (AG) (AG) (AU) (AU)
                 (AG) (AU) (AG) (AU) (AU) (AG) (AU) (AG) (AU) (AG)
                 (AG) (AU) (AU) (AG) (AU) (AG) (AG) (AU) (AU) (AG)
                 (AG) (AU) (AU) (AG) (AU) (AG) (AG) (AU) (AU) (AG)
                 (AG) (AU) (AU)
       Virtual   (AG) (AG) (AU) (AU) (AG) (AU) (AG) (AU) (AG) (AG)
                 (AU) (AU) (AG) (AG) (AG) (AG) (AU) (AU) (AU) (AG)
                 (AU) (AG) (AG) (AU) (AU) (AG) (AG) (AU) (AU) (AU)
                 (AG) (AG) (AU) (AG) (AU) (AG) (AU) (AG) (AU) (AG)
                 (AU) (AG) (AU) (AG) (AU) (AG) (AG) (AU) (AU) (AU)
                 (AG) (AG) (AG) (AU) (AU) (AG) (AU) (AG) (AU) (AG)
                 (AG) (AU) (AU) (AU) (AG) (AG) (AG) (AU) (AU) (AG)
                 (AU) (AG) (AU) (AU) (AU) (AG) (AG) (AG) (AU) (AG)
                 (AG) (AU) (AU) (AG) (AU) (AU) (AG) (AG) (AG) (AG)
                 (AU) (AU) (AU) (AU) (AU) (AG) (AG) (AU) (AG) (AG)
                 (AU) (AG) (AG) (AU) (AU) (AU) (AG) (AU) (AG) (AG)
                 (AG) (AU) (AU) (AU) (AG) (AG) (AU) (AU) (AU) (AG)
                 (AG) (AU) (AU) (AG) (AG) (AG) (AU) (AU) (AG) (AG)
                 (AG) (AU) (AU) (AU) (AG) (AU) (AG) (AG) (AG) (AU)
                 (AU) (AU) (AG) (AG) (AU) (AU) (AG) (AG) (AU) (AU)
                 (AU) (AG) (AU) (AG) (AG) (AU) (AG) (AU) (AG) (AU)
                 (AG) (AU) (AU) (AG) (AU) (AG) (AG) (AU) (AU) (AG)
                 (AG) (AG) (AG) (AU) (AU) (AG) (AU) (AU) (AG) (AU)
                 (AG) (AG) (AU) (AU) (AG) (AU) (AG) (AG) (AU) (AG)
                 (AG) (AU) (AU) (AU) (AG) (AU) (AG) (AU) (AG) (AG)
                 (AU) (AG) (AU) (AG) (AG) (AU) (AU) (AU) (AG) (AU)
                 (AG) (AG) (AG) (AG) (AU) (AU) (AU) (AG) (AU) (AU)
                 (AG) (AU) (AU) (AG) (AG) (AG) (AG) (AG) (AU) (AU)
                 (AU) (AU) (AG) (AU) (AU) (AU) (AG) (AG) (AG) (AG)
                 (AU) (AG) (AU) (AG) (AU) (AG) (AU) (AG) (AU) (AG)
                 (AG) (AU) (AU) (AU) (AG) (AG) (AU) (AG) (AG) (AU)
                 (AU) (AU) (AG) (AG) (AG) (AG) (AU) (AU) (AG) (AU)
                 (AU) (AU) (AG) (AG) (AU) (AU) (AG) (AG) (AG) (AU)
                 (AU) (AU) (AU) (AG) (AG) (AG) (AU) (AU) (AG) (AG)
                 (AG) (AU) (AU) (AG) (AU) (AU) (AG) (AG) (AG) (AU)
                 (AU) (AU) (AG) (AG) (AG) (AU) (AU) (AG) (AG) (AU)
                 (AU) (AG) (AG) (AU) (AU) (AG) (AU) (AU) (AU) (AG)
                 (AG) (AG) (AG) (AU) (AG) (AU) (AU) (AG) (AU) (AU)
                 (AU) (AG) (AG) (AG) (AU) (AU) (AG) (AG) (AU) (AU)
                 (AU) (AG) (AG) (AG) (AU) (AU) (AG) (AU) (AU) (AG)
                 (AG) (AG) (AG) (AG) (AU) (AU) (AU) (AG) (AU) (AU)
                 (AG) (AU) (AU) (AG) (AG) (AG) (AG) (AU) (AU) (AG)
                 (AG) (AU) (AU) (AU) (AG) (AU) (AG) (AG) (AU) (AU)
                 (AG) (AG) (AU) (AU) (AG) (AU) (AG) (AU) (AG) (AU)
                 (AU) (AG) (AG) (AG) (AU) (AG) (AU) (AG) (AG) (AU)
                 (AU) (AU) (AU) (AG) (AG) (AG) (AG) (AU) (AG) (AG)
                 (AU) (AU) (AU) (AU) (AU) (AG) (AG) (AG) (AU) (AG)
                 (AU) (AU) (AG) (AU) (AG) (AU) (AU) (AG) (AG) (AG)
                 (AU) (AU) (AG) (AU) (AG) (AG) (AU) (AU) (AG) (AG)
                 (AU) (AU) (AG) (AG) (AU) (AU) (AU) (AG) (AG) (AU)
                 (AG) (AU) (AU) (AG) (AG) (AG) (AU) (AG) (AU) (AU)
                 (AG) (AU) (AG) (AG) (AU) (AU) (AG) (AG) (AU) (AU)
                 (AG) (AU) (AG) (AG) (AU) (AU) (AG) (AG) (AG) (AU)
                 (AU) (AG) (AU) (AG) (AU) (AG) (AU) (AU) (AG) (AG)
                 (AU) (AG) (AU) (AU) (AG) (AG) (AU) (AG) (AU) (AG)
                 (AU) (AG) (AU) (AU) (AG) (AU) (AG) (AG) (AU) (AU)
                 (AG)
 The electronic state of the initial guess is 1-AG.
 Requested convergence on RMS density matrix=1.00D-08 within 128 cycles.
 Requested convergence on MAX density matrix=1.00D-06.
 Requested convergence on             energy=1.00D-06.
 No special actions if energy rises.
 Integral accuracy reduced to 1.0D-05 until final iterations.
 Initial convergence to 1.0D-05 achieved.  Increase integral accuracy.
 SCF Done:  E(RB3LYP) =  -1604.12509834     A.U. after   14 cycles
             Convg  =    0.8193D-08             -V/T =  2.0092

 **********************************************************************

            Population analysis using the SCF density.

 **********************************************************************

 Orbital symmetries:
       Occupied  (AU) (AG) (AG) (AU) (AU) (AG) (AU) (AG) (AU) (AG)
                 (AG) (AU) (AU) (AG) (AG) (AU) (AU) (AG) (AG) (AU)
                 (AU) (AG) (AU) (AG) (AU) (AG) (AU) (AG) (AG) (AU)
                 (AG) (AU) (AU) (AG) (AG) (AU) (AU) (AG) (AG) (AU)
                 (AG) (AU) (AU) (AG) (AG) (AU) (AU) (AG) (AG) (AU)
                 (AU) (AG) (AU) (AG) (AU) (AG) (AU) (AG) (AU) (AG)
                 (AG) (AG) (AU) (AU) (AU) (AU) (AG) (AG) (AU) (AG)
                 (AG) (AU) (AG) (AG) (AU) (AU) (AG) (AU) (AU) (AG)
                 (AU) (AG) (AU) (AG) (AU) (AG) (AU) (AU) (AG) (AG)
                 (AG) (AG) (AU) (AU) (AG) (AU) (AG) (AU) (AG) (AU)
                 (AU) (AG) (AG) (AU) (AU) (AG) (AU) (AG) (AU) (AG)
                 (AU) (AG) (AG) (AU) (AG) (AU) (AG) (AU) (AU) (AG)
                 (AG) (AU) (AU) (AG) (AU) (AG) (AU) (AG) (AU) (AG)
                 (AG) (AU) (AU)
       Virtual   (AG) (AG) (AU) (AG) (AU) (AU) (AG) (AU) (AG) (AG)
                 (AU) (AU) (AG) (AU) (AU) (AG) (AG) (AG) (AU) (AU)
                 (AG) (AG) (AG) (AG) (AU) (AU) (AU) (AG) (AU) (AG)
                 (AU) (AG) (AG) (AU) (AG) (AG) (AU) (AU) (AU) (AU)
                 (AG) (AG) (AU) (AG) (AU) (AG) (AU) (AG) (AU) (AG)
                 (AG) (AU) (AU) (AG) (AU) (AU) (AG) (AG) (AG) (AU)
                 (AG) (AU) (AU) (AU) (AG) (AU) (AG) (AU) (AU) (AG)
                 (AG) (AU) (AG) (AG) (AU) (AU) (AG) (AG) (AU) (AG)
                 (AU) (AU) (AG) (AU) (AU) (AG) (AG) (AG) (AU) (AG)
                 (AU) (AU) (AU) (AG) (AG) (AG) (AU) (AG) (AU) (AU)
                 (AG) (AG) (AU) (AU) (AU) (AG) (AG) (AG) (AG) (AU)
                 (AU) (AG) (AG) (AU) (AU) (AG) (AU) (AU) (AG) (AU)
                 (AG) (AU) (AG) (AU) (AG) (AU) (AG) (AG) (AU) (AG)
                 (AU) (AG) (AG) (AU) (AU) (AG) (AU) (AG) (AU) (AU)
                 (AG) (AU) (AG) (AG) (AU) (AU) (AG) (AG) (AU) (AU)
                 (AU) (AG) (AG) (AU) (AG) (AU) (AU) (AU) (AG) (AG)
                 (AU) (AG) (AG) (AG) (AU) (AG) (AU) (AU) (AG) (AG)
                 (AU) (AG) (AU) (AU) (AG) (AG) (AU) (AU) (AG) (AU)
                 (AG) (AU) (AU) (AG) (AG) (AU) (AG) (AG) (AG) (AU)
                 (AG) (AU) (AU) (AU) (AG) (AG) (AU) (AU) (AG) (AG)
                 (AG) (AU) (AU) (AG) (AG) (AU) (AU) (AG) (AU) (AU)
                 (AG) (AG) (AU) (AG) (AG) (AU) (AU) (AG) (AU) (AU)
                 (AG) (AG) (AU) (AG) (AG) (AU) (AU) (AG) (AU) (AU)
                 (AG) (AG) (AU) (AU) (AU) (AG) (AG) (AU) (AG) (AG)
                 (AG) (AU) (AG) (AU) (AG) (AU) (AU) (AG) (AU) (AG)
                 (AU) (AG) (AU) (AG) (AG) (AU) (AU) (AG) (AG) (AU)
                 (AG) (AG) (AU) (AU) (AU) (AG) (AU) (AG) (AU) (AG)
                 (AG) (AU) (AU) (AU) (AG) (AU) (AG) (AU) (AU) (AG)
                 (AU) (AG) (AG) (AU) (AG) (AG) (AU) (AG) (AU) (AG)
                 (AG) (AU) (AU) (AG) (AU) (AU) (AG) (AG) (AG) (AU)
                 (AU) (AG) (AU) (AG) (AU) (AU) (AU) (AG) (AG) (AG)
                 (AU) (AU) (AG) (AU) (AG) (AU) (AG) (AU) (AU) (AG)
                 (AG) (AG) (AG) (AU) (AU) (AG) (AU) (AU) (AG) (AU)
                 (AG) (AG) (AU) (AU) (AG) (AU) (AG) (AU) (AU) (AG)
                 (AG) (AU) (AG) (AU) (AG) (AU) (AU) (AG) (AU) (AG)
                 (AG) (AG) (AG) (AG) (AU) (AU) (AG) (AU) (AU) (AU)
                 (AG) (AU) (AU) (AG) (AG) (AG) (AU) (AG) (AU) (AG)
                 (AU) (AG) (AG) (AU) (AU) (AU) (AG) (AG) (AU) (AU)
                 (AG) (AG) (AU) (AU) (AU) (AG) (AG) (AU) (AG) (AU)
                 (AU) (AG) (AG) (AG) (AU) (AU) (AG) (AG) (AG) (AU)
                 (AU) (AU) (AU) (AG) (AG) (AG) (AG) (AU) (AU) (AU)
                 (AG) (AG) (AU) (AG) (AU) (AG) (AU) (AG) (AU) (AU)
                 (AU) (AG) (AG) (AU) (AU) (AG) (AU) (AG) (AG) (AG)
                 (AU) (AG) (AU) (AU) (AG) (AG) (AU) (AU) (AG) (AG)
                 (AU) (AU) (AG) (AG) (AU) (AU) (AG) (AU) (AU) (AG)
                 (AG) (AU) (AG) (AU) (AG) (AG) (AU) (AG) (AU) (AU)
                 (AG) (AU) (AG) (AG) (AU) (AU) (AG) (AG) (AU) (AU)
                 (AG) (AU) (AG) (AG) (AU) (AG) (AG) (AU) (AG) (AU)
                 (AU) (AG) (AU) (AG) (AU) (AU) (AG) (AU) (AG) (AG)
                 (AU) (AG) (AU) (AU) (AG) (AG) (AU) (AG) (AG) (AU)
                 (AU) (AG) (AU) (AG) (AU) (AU) (AG) (AG) (AU) (AU)
                 (AG)
 The electronic state is 1-AG.
 Alpha  occ. eigenvalues --  -14.38398 -14.38398 -14.31191 -14.31191 -10.23350
 Alpha  occ. eigenvalues --  -10.23350 -10.23349 -10.23349 -10.21835 -10.21835
 Alpha  occ. eigenvalues --  -10.21834 -10.21834 -10.20202 -10.20202 -10.20201
 Alpha  occ. eigenvalues --  -10.20201 -10.20031 -10.20031 -10.19983 -10.19983
 Alpha  occ. eigenvalues --  -10.19969 -10.19969 -10.19968 -10.19968 -10.19183
 Alpha  occ. eigenvalues --  -10.19183 -10.19120 -10.19120 -10.19118 -10.19118
 Alpha  occ. eigenvalues --  -10.19118 -10.19118 -10.19018 -10.19018 -10.18972
 Alpha  occ. eigenvalues --  -10.18972 -10.18212 -10.18212 -10.18146 -10.18146
 Alpha  occ. eigenvalues --   -1.00732  -1.00651  -0.94688  -0.94563  -0.86315
 Alpha  occ. eigenvalues --   -0.86294  -0.84262  -0.84217  -0.81697  -0.80236
 Alpha  occ. eigenvalues --   -0.78474  -0.78024  -0.77887  -0.76288  -0.74432
 Alpha  occ. eigenvalues --   -0.74323  -0.74197  -0.74029  -0.73554  -0.73398
 Alpha  occ. eigenvalues --   -0.69864  -0.65862  -0.65856  -0.65813  -0.64559
 Alpha  occ. eigenvalues --   -0.61651  -0.61588  -0.60680  -0.59887  -0.58814
 Alpha  occ. eigenvalues --   -0.58724  -0.58307  -0.57061  -0.56463  -0.56294
 Alpha  occ. eigenvalues --   -0.53549  -0.52167  -0.51402  -0.51314  -0.50270
 Alpha  occ. eigenvalues --   -0.49913  -0.49726  -0.47598  -0.47268  -0.46511
 Alpha  occ. eigenvalues --   -0.45068  -0.44900  -0.44900  -0.44778  -0.44673
 Alpha  occ. eigenvalues --   -0.44489  -0.44409  -0.44212  -0.44090  -0.43858
 Alpha  occ. eigenvalues --   -0.43194  -0.42386  -0.41593  -0.41094  -0.41029
 Alpha  occ. eigenvalues --   -0.40601  -0.40572  -0.40432  -0.39937  -0.38262
 Alpha  occ. eigenvalues --   -0.38143  -0.36788  -0.36674  -0.35723  -0.35621
 Alpha  occ. eigenvalues --   -0.35590  -0.35377  -0.34847  -0.34174  -0.34079
 Alpha  occ. eigenvalues --   -0.33966  -0.33769  -0.33411  -0.32707  -0.29785
 Alpha  occ. eigenvalues --   -0.28581  -0.26983  -0.26401  -0.26319  -0.25918
 Alpha  occ. eigenvalues --   -0.25868  -0.24316  -0.24144  -0.23558  -0.23399
 Alpha  occ. eigenvalues --   -0.22900  -0.19008  -0.17188
 Alpha virt. eigenvalues --   -0.08052  -0.07981  -0.03142  -0.02292  -0.02197
 Alpha virt. eigenvalues --   -0.01149  -0.00990   0.03630   0.03770   0.04089
 Alpha virt. eigenvalues --    0.06750   0.07120   0.08409   0.08833   0.09130
 Alpha virt. eigenvalues --    0.09591   0.09831   0.10550   0.11378   0.11578
 Alpha virt. eigenvalues --    0.12033   0.12549   0.13247   0.14861   0.15308
 Alpha virt. eigenvalues --    0.15691   0.15824   0.16005   0.16642   0.16976
 Alpha virt. eigenvalues --    0.17109   0.17645   0.18329   0.18769   0.19593
 Alpha virt. eigenvalues --    0.19921   0.19963   0.20164   0.20517   0.21818
 Alpha virt. eigenvalues --    0.22403   0.22671   0.22967   0.23892   0.24177
 Alpha virt. eigenvalues --    0.25458   0.26132   0.26605   0.27301   0.27425
 Alpha virt. eigenvalues --    0.27789   0.27888   0.28462   0.28464   0.28914
 Alpha virt. eigenvalues --    0.29873   0.30276   0.31124   0.32497   0.32877
 Alpha virt. eigenvalues --    0.33323   0.34193   0.35208   0.35709   0.36695
 Alpha virt. eigenvalues --    0.37430   0.38480   0.39874   0.39934   0.39942
 Alpha virt. eigenvalues --    0.41287   0.43004   0.43018   0.44140   0.44158
 Alpha virt. eigenvalues --    0.44686   0.45803   0.47020   0.49237   0.49240
 Alpha virt. eigenvalues --    0.49920   0.49996   0.50287   0.50623   0.50763
 Alpha virt. eigenvalues --    0.50883   0.50981   0.51400   0.51999   0.52289
 Alpha virt. eigenvalues --    0.53666   0.53965   0.54187   0.54428   0.54595
 Alpha virt. eigenvalues --    0.54604   0.54624   0.55506   0.56033   0.56365
 Alpha virt. eigenvalues --    0.57049   0.57081   0.57104   0.57183   0.57887
 Alpha virt. eigenvalues --    0.57918   0.57979   0.58122   0.58447   0.58634
 Alpha virt. eigenvalues --    0.59211   0.59239   0.59317   0.59425   0.60207
 Alpha virt. eigenvalues --    0.60564   0.60733   0.60827   0.60848   0.60918
 Alpha virt. eigenvalues --    0.61110   0.61272   0.61312   0.61319   0.61609
 Alpha virt. eigenvalues --    0.61843   0.62338   0.62702   0.62912   0.63494
 Alpha virt. eigenvalues --    0.64107   0.64416   0.64796   0.64817   0.65068
 Alpha virt. eigenvalues --    0.65315   0.65793   0.65863   0.66081   0.66110
 Alpha virt. eigenvalues --    0.68628   0.68725   0.68955   0.69143   0.69428
 Alpha virt. eigenvalues --    0.71058   0.72179   0.72993   0.74278   0.74402
 Alpha virt. eigenvalues --    0.75045   0.75458   0.76234   0.77901   0.78423
 Alpha virt. eigenvalues --    0.79454   0.79482   0.79889   0.80311   0.81490
 Alpha virt. eigenvalues --    0.82164   0.82708   0.82886   0.83060   0.83504
 Alpha virt. eigenvalues --    0.83802   0.83813   0.84562   0.84786   0.84820
 Alpha virt. eigenvalues --    0.84901   0.85698   0.86585   0.86941   0.87280
 Alpha virt. eigenvalues --    0.87853   0.88129   0.88389   0.88714   0.89342
 Alpha virt. eigenvalues --    0.89638   0.89704   0.89871   0.89950   0.90467
 Alpha virt. eigenvalues --    0.90671   0.90852   0.91315   0.91516   0.92411
 Alpha virt. eigenvalues --    0.93618   0.94620   0.94636   0.95475   0.95768
 Alpha virt. eigenvalues --    0.96664   0.96924   0.97000   0.99310   0.99793
 Alpha virt. eigenvalues --    1.00612   1.00753   1.01209   1.02088   1.02757
 Alpha virt. eigenvalues --    1.03962   1.04170   1.07893   1.08242   1.09890
 Alpha virt. eigenvalues --    1.10251   1.11906   1.12094   1.12607   1.12683
 Alpha virt. eigenvalues --    1.12779   1.12783   1.15394   1.15794   1.15958
 Alpha virt. eigenvalues --    1.17341   1.17451   1.17510   1.18880   1.19399
 Alpha virt. eigenvalues --    1.19697   1.20694   1.20820   1.21061   1.21555
 Alpha virt. eigenvalues --    1.22561   1.22992   1.24738   1.24936   1.25671
 Alpha virt. eigenvalues --    1.27155   1.28160   1.28359   1.28523   1.28730
 Alpha virt. eigenvalues --    1.29721   1.29744   1.31457   1.31603   1.32799
 Alpha virt. eigenvalues --    1.32968   1.33466   1.34420   1.34697   1.36617
 Alpha virt. eigenvalues --    1.37116   1.38000   1.38048   1.38449   1.39844
 Alpha virt. eigenvalues --    1.40131   1.40260   1.42021   1.42495   1.42854
 Alpha virt. eigenvalues --    1.43144   1.43217   1.43552   1.43941   1.44495
 Alpha virt. eigenvalues --    1.45297   1.45394   1.45490   1.46016   1.46067
 Alpha virt. eigenvalues --    1.46330   1.46442   1.46991   1.47967   1.48652
 Alpha virt. eigenvalues --    1.48663   1.48725   1.48746   1.48797   1.49383
 Alpha virt. eigenvalues --    1.49789   1.49791   1.50412   1.50485   1.53734
 Alpha virt. eigenvalues --    1.55452   1.56926   1.63927   1.64270   1.66066
 Alpha virt. eigenvalues --    1.66187   1.67433   1.68408   1.69104   1.71801
 Alpha virt. eigenvalues --    1.72308   1.74138   1.74285   1.75431   1.77449
 Alpha virt. eigenvalues --    1.77973   1.78809   1.79108   1.79353   1.80419
 Alpha virt. eigenvalues --    1.80589   1.80840   1.81078   1.82156   1.82198
 Alpha virt. eigenvalues --    1.82392   1.83296   1.83784   1.84531   1.84680
 Alpha virt. eigenvalues --    1.85763   1.86039   1.87456   1.87545   1.87946
 Alpha virt. eigenvalues --    1.88071   1.88408   1.89532   1.91284   1.92390
 Alpha virt. eigenvalues --    1.92392   1.92633   1.92783   1.92975   1.93739
 Alpha virt. eigenvalues --    1.93767   1.94370   1.94526   1.99432   1.99476
 Alpha virt. eigenvalues --    1.99782   1.99981   2.02276   2.02444   2.02489
 Alpha virt. eigenvalues --    2.02732   2.03435   2.03996   2.04694   2.05054
 Alpha virt. eigenvalues --    2.05183   2.05875   2.06083   2.07452   2.07945
 Alpha virt. eigenvalues --    2.08140   2.08635   2.09965   2.10000   2.10254
 Alpha virt. eigenvalues --    2.10531   2.11313   2.11909   2.12012   2.17316
 Alpha virt. eigenvalues --    2.18174   2.18189   2.18429   2.18903   2.19758
 Alpha virt. eigenvalues --    2.20182   2.22305   2.22579   2.23795   2.24710
 Alpha virt. eigenvalues --    2.24833   2.25011   2.25231   2.25279   2.25550
 Alpha virt. eigenvalues --    2.25848   2.27455   2.27915   2.28084   2.28160
 Alpha virt. eigenvalues --    2.28369   2.28418   2.28922   2.29145   2.30418
 Alpha virt. eigenvalues --    2.30663   2.30742   2.33516   2.34256   2.34512
 Alpha virt. eigenvalues --    2.38087   2.39616   2.40052   2.41279   2.44432
 Alpha virt. eigenvalues --    2.44617   2.44621   2.45244   2.46568   2.47024
 Alpha virt. eigenvalues --    2.47339   2.49021   2.50724   2.52339   2.54836
 Alpha virt. eigenvalues --    2.56303   2.56757   2.57514   2.57601   2.57762
 Alpha virt. eigenvalues --    2.58335   2.58443   2.61349   2.61962   2.62508
 Alpha virt. eigenvalues --    2.62954   2.63549   2.64321   2.65117   2.65280
 Alpha virt. eigenvalues --    2.66105   2.67249   2.67632   2.68696   2.68980
 Alpha virt. eigenvalues --    2.69160   2.69532   2.70611   2.70818   2.71181
 Alpha virt. eigenvalues --    2.71205   2.71692   2.71828   2.72204   2.72780
 Alpha virt. eigenvalues --    2.74256   2.81511   2.82130   2.82195   2.83618
 Alpha virt. eigenvalues --    2.83688   2.84235   2.85952   2.88738   2.89264
 Alpha virt. eigenvalues --    2.89912   2.91659   2.91752   2.94120   2.95477
 Alpha virt. eigenvalues --    2.97228   3.02839   3.03914   3.04305   3.05254
 Alpha virt. eigenvalues --    3.08926   3.11195   3.14851   3.16153   3.20990
 Alpha virt. eigenvalues --    3.24813   3.25158   3.33680   3.34107   3.40176
 Alpha virt. eigenvalues --    3.42602   3.44482   3.46498   3.49772   3.50994
 Alpha virt. eigenvalues --    3.51406   4.05541   4.05770   4.06568   4.07886
 Alpha virt. eigenvalues --    4.08008   4.08951   4.08976   4.09050   4.09685
 Alpha virt. eigenvalues --    4.10387   4.11012   4.12408   4.15303   4.16399
 Alpha virt. eigenvalues --    4.16738   4.16989   4.22825   4.23849   4.24299
 Alpha virt. eigenvalues --    4.26887   4.27025   4.29437   4.30113   4.32509
 Alpha virt. eigenvalues --    4.41327   4.43059   4.45316   4.45503   4.46257
 Alpha virt. eigenvalues --    4.47199   4.49189   4.50212   4.57986   4.59132
 Alpha virt. eigenvalues --    4.66040   4.72447   4.79616   4.82961   4.83876
 Alpha virt. eigenvalues --    4.84812
          Condensed to atoms (all electrons):
 Mulliken atomic charges:
              1
     1  C    0.072892
     2  C    0.072839
     3  C    0.299745
     4  C    0.299711
     5  N   -0.698398
     6  C   -0.257597
     7  C    0.347318
     8  N   -0.795691
     9  C    0.347483
    10  C    0.073505
    11  C    0.073488
    12  C   -0.257804
    13  C    0.299745
    14  N   -0.698398
    15  C    0.072892
    16  C    0.072839
    17  C    0.347318
    18  N   -0.795691
    19  C    0.347483
    20  C    0.073488
    21  C    0.073505
    22  C   -0.257804
    23  C   -0.257597
    24  C    0.299711
    25  C   -0.200803
    26  C   -0.200825
    27  H    0.139937
    28  H    0.415788
    29  C   -0.189769
    30  C   -0.189752
    31  H    0.139932
    32  C   -0.200803
    33  C   -0.200825
    34  H    0.415788
    35  C   -0.189752
    36  C   -0.189769
    37  H    0.139932
    38  H    0.139937
    39  C   -0.137811
    40  C   -0.137840
    41  C   -0.137576
    42  C   -0.137486
    43  C   -0.137840
    44  C   -0.137811
    45  C   -0.137576
    46  C   -0.137486
    47  H    0.127976
    48  H    0.127977
    49  H    0.137855
    50  H    0.137865
    51  H    0.127976
    52  H    0.127977
    53  H    0.137865
    54  H    0.137855
    55  H    0.135038
    56  H    0.135046
    57  H    0.128479
    58  H    0.128478
    59  H    0.135046
    60  H    0.135038
    61  H    0.128479
    62  H    0.128478
 Sum of Mulliken atomic charges =   0.00000
 Mulliken charges with hydrogens summed into heavy atoms:
              1
     1  C    0.072892
     2  C    0.072839
     3  C    0.299745
     4  C    0.299711
     5  N   -0.698398
     6  C   -0.117659
     7  C    0.347318
     8  N   -0.379903
     9  C    0.347483
    10  C    0.073505
    11  C    0.073488
    12  C   -0.117872
    13  C    0.299745
    14  N   -0.698398
    15  C    0.072892
    16  C    0.072839
    17  C    0.347318
    18  N   -0.379903
    19  C    0.347483
    20  C    0.073488
    21  C    0.073505
    22  C   -0.117872
    23  C   -0.117659
    24  C    0.299711
    25  C   -0.072827
    26  C   -0.072848
    29  C   -0.051915
    30  C   -0.051887
    32  C   -0.072827
    33  C   -0.072848
    35  C   -0.051887
    36  C   -0.051915
    39  C   -0.002773
    40  C   -0.002793
    41  C   -0.009097
    42  C   -0.009008
    43  C   -0.002793
    44  C   -0.002773
    45  C   -0.009097
    46  C   -0.009008
 Sum of Mulliken charges with hydrogens summed into heavy atoms =   0.00000
 Electronic spatial extent (au):  <R**2>=          22907.6853
 Charge=              0.0000 electrons
 Dipole moment (field-independent basis, Debye):
    X=              0.0000    Y=              0.0000    Z=              0.0000  Tot=              0.0000
 Quadrupole moment (field-independent basis, Debye-Ang):
   XX=           -199.6480   YY=           -220.1112   ZZ=           -196.9869
   XY=            -23.1925   XZ=             11.9721   YZ=              3.5710
 Traceless Quadrupole moment (field-independent basis, Debye-Ang):
   XX=              5.9340   YY=            -14.5292   ZZ=              8.5952
   XY=            -23.1925   XZ=             11.9721   YZ=              3.5710
 Octapole moment (field-independent basis, Debye-Ang**2):
  XXX=              0.0000  YYY=              0.0000  ZZZ=              0.0000  XYY=              0.0000
  XXY=              0.0000  XXZ=              0.0000  XZZ=              0.0000  YZZ=              0.0000
  YYZ=              0.0000  XYZ=              0.0000
 Hexadecapole moment (field-independent basis, Debye-Ang**3):
 XXXX=         -10195.8309 YYYY=          -6127.4052 ZZZZ=         -13737.5955 XXXY=           2733.7178
 XXXZ=           -677.4774 YYYX=           3237.5829 YYYZ=          -1475.6397 ZZZX=           -594.5553
 ZZZY=          -1167.2727 XXYY=          -2339.4453 XXZZ=          -3959.0994 YYZZ=          -3412.2188
 XXYZ=           -592.8313 YYXZ=           -445.6822 ZZXY=            852.9789
 N-N= 3.982044757949D+03 E-N=-1.168273207471D+04  KE= 1.589435729928D+03
 Symmetry AG   KE= 7.932164153252D+02
 Symmetry AU   KE= 7.962193146024D+02
 Calling FoFJK, ICntrl=      2127 FMM=F ISym2X=1 I1Cent= 0 IOpClX= 0 NMat=1 NMatS=1 NMatT=0.
 ***** Axes restored to original set *****
 -------------------------------------------------------------------
 Center     Atomic                   Forces (Hartrees/Bohr)
 Number     Number              X              Y              Z
 -------------------------------------------------------------------
      1        6          -0.029199174    0.016391580   -0.014269547
      2        6           0.027478556   -0.013515161    0.019759940
      3        6           0.012052306   -0.007335996    0.004016213
      4        6          -0.010338635    0.004491741   -0.009433156
      5        7           0.005707950   -0.009211592   -0.017515485
      6        6           0.022185192   -0.017090520   -0.004839320
      7        6           0.013827722    0.014677877    0.082531440
      8        7           0.006575713   -0.003485114    0.003951539
      9        6           0.054108447   -0.050532002   -0.041642048
     10        6          -0.034372725    0.025174452    0.003020631
     11        6          -0.021509948    0.004333752   -0.036630794
     12        6           0.012350380   -0.001146857    0.025608570
     13        6          -0.012052306    0.007335996   -0.004016213
     14        7          -0.005707950    0.009211592    0.017515485
     15        6           0.029199174   -0.016391580    0.014269547
     16        6          -0.027478556    0.013515161   -0.019759940
     17        6          -0.013827722   -0.014677877   -0.082531440
     18        7          -0.006575713    0.003485114   -0.003951539
     19        6          -0.054108447    0.050532002    0.041642048
     20        6           0.021509948   -0.004333752    0.036630794
     21        6           0.034372725   -0.025174452   -0.003020631
     22        6          -0.012350380    0.001146857   -0.025608570
     23        6          -0.022185192    0.017090520    0.004839320
     24        6           0.010338635   -0.004491741    0.009433156
     25        6           0.003638438    0.001745778    0.014541118
     26        6          -0.010398671    0.009135708    0.006102505
     27        1          -0.000599734   -0.000038321   -0.001555790
     28        1          -0.009172637    0.004864134   -0.005498455
     29        6          -0.015211372    0.005592255   -0.017304986
     30        6          -0.019569701    0.012740843   -0.003617875
     31        1          -0.001268759    0.001038382    0.000433320
     32        6          -0.003638438   -0.001745778   -0.014541118
     33        6           0.010398671   -0.009135708   -0.006102505
     34        1           0.009172637   -0.004864134    0.005498455
     35        6           0.019569701   -0.012740843    0.003617875
     36        6           0.015211372   -0.005592255    0.017304986
     37        1           0.001268759   -0.001038382   -0.000433320
     38        1           0.000599734    0.000038321    0.001555790
     39        6           0.011837605   -0.004312658    0.013617511
     40        6           0.015368893   -0.010058483    0.002734237
     41        6          -0.004670690    0.006006635    0.009098661
     42        6          -0.001796321    0.004496012    0.010888030
     43        6          -0.015368893    0.010058483   -0.002734237
     44        6          -0.011837605    0.004312658   -0.013617511
     45        6           0.004670690   -0.006006635   -0.009098661
     46        6           0.001796321   -0.004496012   -0.010888030
     47        1          -0.003163381    0.001887753   -0.001164794
     48        1           0.002780683   -0.001245587    0.002437844
     49        1          -0.000914285    0.001385280    0.002507367
     50        1           0.000739577   -0.001286910   -0.002624981
     51        1           0.003163381   -0.001887753    0.001164794
     52        1          -0.002780683    0.001245587   -0.002437844
     53        1          -0.000739577    0.001286910    0.002624981
     54        1           0.000914285   -0.001385280   -0.002507367
     55        1          -0.002099912    0.001546739    0.000197953
     56        1          -0.001307957    0.000255406   -0.002247257
     57        1           0.001809260   -0.001782027   -0.001711818
     58        1          -0.000292139   -0.000676547   -0.002973605
     59        1           0.001307957   -0.000255406    0.002247257
     60        1           0.002099912   -0.001546739   -0.000197953
     61        1          -0.001809260    0.001782027    0.001711818
     62        1           0.000292139    0.000676547    0.002973605
 -------------------------------------------------------------------
 Cartesian Forces:  Max     0.082531440 RMS     0.016736752

 GradGradGradGradGradGradGradGradGradGradGradGradGradGradGradGradGradGrad
 Berny optimization.
 Internal  Forces:  Max     0.046838966 RMS     0.008448210
 Search for a local minimum.
 Step number   1 out of a maximum of  372
 All quantities printed in internal units (Hartrees-Bohrs-Radians)
 Mixed Optimization -- RFO/linear search
 Second derivative matrix not updated -- first step.
 ITU=  0
     Eigenvalues ---    0.01617   0.01623   0.01633   0.01654   0.01751
     Eigenvalues ---    0.01751   0.01784   0.01785   0.01790   0.01791
     Eigenvalues ---    0.01791   0.01791   0.01793   0.01798   0.01799
     Eigenvalues ---    0.01877   0.01878   0.01962   0.01962   0.01963
     Eigenvalues ---    0.01963   0.01981   0.01982   0.01982   0.01982
     Eigenvalues ---    0.01983   0.01983   0.01985   0.01985   0.02023
     Eigenvalues ---    0.02023   0.02047   0.02048   0.02062   0.02062
     Eigenvalues ---    0.02062   0.02064   0.02064   0.02067   0.02067
     Eigenvalues ---    0.02077   0.02082   0.02082   0.02088   0.02088
     Eigenvalues ---    0.02098   0.02106   0.02121   0.02122   0.02181
     Eigenvalues ---    0.02228   0.02234   0.02235   0.02241   0.02269
     Eigenvalues ---    0.02270   0.02270   0.02280   0.02283   0.16000
     Eigenvalues ---    0.16000   0.16000   0.16000   0.16000   0.16000
     Eigenvalues ---    0.16000   0.16000   0.16000   0.16000   0.16000
     Eigenvalues ---    0.16000   0.16000   0.16000   0.16000   0.16000
     Eigenvalues ---    0.16000   0.16000   0.16000   0.16000   0.16000
     Eigenvalues ---    0.16000   0.22000   0.22000   0.22000   0.22000
     Eigenvalues ---    0.22000   0.22605   0.22605   0.22617   0.22617
     Eigenvalues ---    0.23176   0.23343   0.23346   0.23802   0.23813
     Eigenvalues ---    0.24541   0.24542   0.24542   0.24543   0.25000
     Eigenvalues ---    0.25000   0.25000   0.25000   0.25000   0.25000
     Eigenvalues ---    0.25000   0.25000   0.25000   0.25000   0.25000
     Eigenvalues ---    0.34195   0.34227   0.35575   0.35575   0.35575
     Eigenvalues ---    0.35575   0.35727   0.35727   0.35727   0.35727
     Eigenvalues ---    0.35755   0.35755   0.35756   0.35756   0.35836
     Eigenvalues ---    0.35836   0.35836   0.35836   0.35851   0.35851
     Eigenvalues ---    0.35852   0.35852   0.36115   0.36127   0.39556
     Eigenvalues ---    0.39698   0.40244   0.40319   0.41147   0.41155
     Eigenvalues ---    0.41369   0.41377   0.41387   0.41518   0.42001
     Eigenvalues ---    0.42002   0.42023   0.42163   0.42178   0.42178
     Eigenvalues ---    0.43101   0.43117   0.43141   0.43141   0.43800
     Eigenvalues ---    0.43868   0.44279   0.44290   0.44468   0.44498
     Eigenvalues ---    0.45277   0.45382   0.45382   0.45459   0.45665
     Eigenvalues ---    0.45704   0.45709   0.45709   0.46326   0.46495
     Eigenvalues ---    0.48130   0.48141   0.51204   0.51445   0.51857
     Eigenvalues ---    0.52136   0.52163   0.52170   0.52616   0.52669
 RFO step:  Lambda=-5.63157297D-02 EMin= 1.61704284D-02
 Linear search not attempted -- first point.
 Maximum step size (   0.300) exceeded in Quadratic search.
    -- Step size scaled by   0.842
 Iteration  1 RMS(Cart)=  0.03081488 RMS(Int)=  0.00022656
 Iteration  2 RMS(Cart)=  0.00056824 RMS(Int)=  0.00003611
 Iteration  3 RMS(Cart)=  0.00000025 RMS(Int)=  0.00003611
 ClnCor:  largest displacement from symmetrization is 5.24D-09 for atom    62.
 Variable       Old X    -DE/DX   Delta X   Delta X   Delta X     New X
                                 (Linear)    (Quad)   (Total)
    R1        2.59014   0.02448   0.00000   0.03995   0.03991   2.63005
    R2        2.76660   0.00420   0.00000   0.00897   0.00896   2.77557
    R3        2.63640   0.00194   0.00000   0.00427   0.00426   2.64066
    R4        2.76662   0.00420   0.00000   0.00896   0.00895   2.77557
    R5        2.63639   0.00193   0.00000   0.00425   0.00424   2.64063
    R6        2.56208   0.00894   0.00000   0.01154   0.01156   2.57364
    R7        2.68697  -0.02083   0.00000  -0.03671  -0.03671   2.65026
    R8        2.56208   0.00899   0.00000   0.01161   0.01163   2.57371
    R9        2.68697  -0.02082   0.00000  -0.03669  -0.03669   2.65028
   R10        2.68922  -0.02389   0.00000  -0.04225  -0.04225   2.64697
   R11        2.04751   0.00000   0.00000   0.00001   0.00001   2.04752
   R12        2.56303   0.02157   0.00000   0.02744   0.02757   2.59060
   R13        2.62000   0.04684   0.00000   0.07494   0.07490   2.69490
   R14        2.56304   0.02156   0.00000   0.02742   0.02755   2.59059
   R15        1.94196  -0.01175   0.00000  -0.02029  -0.02029   1.92167
   R16        2.62002   0.04679   0.00000   0.07486   0.07482   2.69484
   R17        2.68921  -0.02386   0.00000  -0.04220  -0.04220   2.64701
   R18        2.59565   0.04205   0.00000   0.07081   0.07061   2.66626
   R19        2.64202   0.00566   0.00000   0.01110   0.01108   2.65310
   R20        2.64200   0.00561   0.00000   0.01102   0.01101   2.65301
   R21        2.68697  -0.02083   0.00000  -0.03671  -0.03671   2.65026
   R22        2.04752   0.00002   0.00000   0.00004   0.00004   2.04756
   R23        2.56208   0.00894   0.00000   0.01154   0.01156   2.57364
   R24        2.76662   0.00420   0.00000   0.00896   0.00895   2.77557
   R25        2.56208   0.00899   0.00000   0.01161   0.01163   2.57371
   R26        2.59014   0.02448   0.00000   0.03995   0.03991   2.63005
   R27        2.76660   0.00420   0.00000   0.00897   0.00896   2.77557
   R28        2.63640   0.00194   0.00000   0.00427   0.00426   2.64066
   R29        2.63639   0.00193   0.00000   0.00425   0.00424   2.64063
   R30        2.56303   0.02157   0.00000   0.02744   0.02757   2.59060
   R31        2.62000   0.04684   0.00000   0.07494   0.07490   2.69490
   R32        2.68922  -0.02389   0.00000  -0.04225  -0.04225   2.64697
[...]
 97,0.24957810,0.00000854,0.00000181,0.00002339,-0.00001171,0.00001449,
 0.00001765,0.00001379,-0.00001483,0.00002606,0.00004467,0.00000420,-0.
 00000638,-0.00002675,-0.00004085,-0.00001314,-0.00000855,0.00000097,-0
 .00001859,0.00002441,-0.00001282,0.00000754,0.00000316,0.00000039,0.00
 001754,0.00002405,-0.00001773,-0.00001096,-0.00002105,0.00000477,-0.00
 003133,-0.00002901,0.00002154,-0.00000058,-0.00004006,0.00002721,0.000
 02110,0.00004475,-0.00002069,0.00002821,-0.00002702,0.00002824,0.00000
 915,0.00001034,0.00000636,-0.00002136,0.00001517,-0.00001169,-0.000000
 62,0.00046645,0.00062456,-0.00034815,-0.00007204,-0.00026677,0.0002372
 2,-0.00030068,-0.00041112,0.00010558,-0.00058678,0.00005524,-0.0002485
 7,0.00289602,0.00542628,-0.00070497,-0.00001032,0.00005791,-0.00000318
 ,0.00000908,-0.00003604,-0.00001516,0.00003097,-0.00000846,-0.00000368
 ,-0.00000089,-0.00000409,-0.00001236,0.00000181,-0.00000722,-0.0000128
 0,0.00000089,-0.00000401,0.00000012,-0.00000082,0.00000335,-0.00000284
 ,0.00001053,-0.00000398,0.00001256,0.00001358,-0.00000970,0.00000243,0
 .00000184,0.00000054,0.00000239,0.00000175,-0.00000305,0.00001253,-0.0
 0000800,0.00000400,0.00000397,-0.00013421,-0.00016970,0.00003519,0.002
 20407,0.00303766,-0.00354887,0.00200972,0.00059464,-0.00086516,0.00000
 489,0.00004870,0.00000782,-0.00001853,-0.00001860,-0.00000645,-0.00000
 086,-0.00000367,-0.00001305,-0.00000719,0.00000755,0.00000969,-0.00000
 795,-0.00000154,-0.00000253,0.00000474,-0.00000248,0.00000237,0.010995
 70,-0.00525211,0.00181450,0.14336377,-0.13773970,-0.00584955,0.0000059
 5,-0.00000324,0.00000742,-0.00000796,0.00000487,0.00000150,0.00000195,
 -0.00000040,0.00000171,-0.00000015,0.00000361,0.00000339,-0.00000010,0
 .00000005,-0.00000202,-0.00000098,0.00000159,0.00000114,0.00000269,0.0
 0000482,-0.00000543,0.00000144,-0.00000115,-0.00000019,0.00066950,-0.0
 0020066,0.00003926,-0.00226562,-0.00243139,0.00114117,0.00000262,-0.00
 000158,0.00000011,0.00000200,-0.00000026,0.00000234,-0.00000094,0.0000
 0413,0.00000301,0.00000087,0.00000173,0.00000321,-0.00189163,-0.001679
 56,0.00063882,-0.15741498,0.13838987,-0.00000287,0.00000104,-0.0000024
 1,0.00000588,-0.00000384,0.00000204,0.00003220,-0.00000310,0.00005343,
 0.00004453,-0.00003456,0.00002708,-0.00004193,0.00004197,-0.00001420,-
 0.00002263,0.00000217,-0.00004610,0.00000324,0.00000892,0.00003993,0.0
 0000786,-0.00000520,-0.00000139,0.00002572,-0.00002259,-0.00001244,-0.
 00000926,0.00000312,-0.00001232,-0.00001473,0.00000971,-0.00000105,-0.
 00003713,0.00002758,-0.00000277,0.00003934,-0.00001155,0.00005728,-0.0
 0005584,0.00002138,-0.00005441,-0.00000629,-0.00000251,-0.00000340,0.0
 0000518,-0.00000764,-0.00001424,-0.00065107,0.00047751,0.00112089,-0.0
 0033741,0.00023746,-0.00039045,0.00019415,0.00004714,-0.00003365,-0.00
 033477,-0.00002872,-0.00117536,-0.00341315,-0.00117614,-0.00440887,-0.
 00006662,0.00002867,-0.00001047,-0.00009394,0.00005001,-0.00008038,0.0
 0009703,-0.00006021,0.00004257,0.00000173,0.00000036,0.00000427,-0.000
 01077,0.00000628,-0.00000664,-0.00000007,0.00000092,-0.00000049,0.0000
 0591,-0.00000433,0.00000309,0.00000615,-0.00000363,0.00000211,0.000005
 79,-0.00000223,0.00000540,-0.00000190,0.00000089,-0.00000040,-0.000015
 77,0.00001004,-0.00000921,0.00000168,0.00000030,0.00000222,0.00001848,
 0.00009948,0.00010452,0.00007381,-0.00297553,-0.00421814,-0.02291800,0
 .01677424,0.00431689,-0.00003763,0.00002383,0.00004081,0.00001047,-0.0
 0000305,-0.00001537,-0.00000105,-0.00000146,-0.00000783,-0.00000537,0.
 00000493,0.00000347,0.00000209,-0.00000015,-0.00000195,0.00000111,-0.0
 0000194,-0.00000376,0.02346798,-0.01592832,0.00404488,-0.00140042,-0.0
 0606685,-0.05875349,-0.00000165,0.00000111,-0.00000144,0.00000360,-0.0
 0000088,0.00000440,0.00000016,-0.00000029,-0.00000012,0.00000093,0.000
 00019,0.00000537,0.00000015,-0.00000022,0.00000021,0.00000025,-0.00000
 035,-0.00000003,-0.00000030,-0.00000122,0.00000353,0.00000021,-0.00000
 026,-0.00000046,0.00116826,-0.00088797,0.00004156,0.00105895,0.0007988
 4,0.00082613,-0.00000033,0.00000011,-0.00000016,-0.00000045,0.00000013
 ,-0.00000017,0.00000002,-0.00000211,-0.00000448,0.00000029,-0.00000076
 ,-0.00000049,0.00018206,0.00104573,0.00074827,0.00301632,0.00751363,0.
 05778684,0.00275275,0.00242783,-0.00242377,-0.00012571,-0.00034869,-0.
 00092356,-0.00019695,-0.00028650,0.00005750,0.00060543,0.00029237,-0.0
 0019058,-0.00016921,-0.00036921,0.00015809,-0.00002683,-0.00001961,0.0
 0000566,-0.00000713,0.00005015,0.00001710,0.00002638,-0.00002133,-0.00
 003218,0.00000064,0.00002101,0.00007253,-0.00000865,0.00001097,-0.0000
 1633,-0.00002644,0.00001644,0.00000459,0.00003115,-0.00003048,-0.00001
 496,-0.00001896,0.00002022,0.00001427,-0.00000020,0.00000390,0.0000189
 3,-0.00000660,-0.00001037,-0.00004444,0.00002941,-0.00002583,-0.000025
 11,-0.00001810,0.00004180,0.00002906,-0.00001626,-0.00001696,-0.000021
 65,0.00001363,-0.00001072,0.00004077,0.00001397,-0.00000626,0.00000554
 ,0.00001163,-0.00000113,0.00002162,0.00002851,0.00001304,-0.00003329,-
 0.00000708,-0.00000187,-0.00002800,-0.00000635,0.00001161,0.00002370,0
 .00639135,-0.00429342,-0.00384040,-0.00094995,0.00373274,-0.00401669,-
 0.00002138,-0.00001536,-0.00001210,0.00000027,-0.00000476,-0.00000452,
 0.00000388,-0.00000400,0.00000868,0.00000923,-0.00000823,-0.00000047,0
 .00000161,0.00000033,0.00000310,-0.00000096,0.00000731,0.00002200,-0.0
 0001176,0.00001224,0.00001625,-0.00001012,-0.00001186,-0.00000058,-0.0
 0000740,0.00000064,-0.00000859,-0.00000649,0.00000172,-0.00000768,0.00
 006067,-0.00001195,-0.00000277,-0.00000317,0.00000119,0.00000145,0.000
 00147,-0.00000601,-0.00000665,-0.00000425,0.00000426,0.00000388,-0.000
 01171,0.00000354,-0.00001508,0.00001601,-0.00001120,0.00000174,0.00000
 282,-0.00000372,-0.00000228,0.00000054,0.00000060,0.00000639,-0.160705
 71,0.11460674,0.08539341,-0.01153898,0.01382537,0.01491001,-0.00064464
 ,-0.00208940,0.00101930,-0.00062583,0.00086386,0.00067907,0.00000069,0
 .00000331,-0.00000421,-0.00000154,0.00000129,0.00000094,-0.00000124,0.
 00000065,-0.00000205,0.00000235,-0.00000118,0.00000025,0.00000617,-0.0
 0000145,0.00000335,0.00000001,0.00000088,0.00000251,0.00000391,-0.0000
 0094,0.00000002,0.00000245,-0.00000007,0.00000297,-0.00000220,0.000002
 27,0.00000209,0.00000054,0.00000109,0.00000366,-0.00000150,0.00000112,
 -0.00000311,-0.00000319,0.00000293,0.00000045,0.16557258,0.00220664,0.
 00506263,-0.00198208,-0.00027378,0.00011878,0.00053261,-0.00030592,-0.
 00036890,0.00014037,0.00062322,0.00067720,0.00005995,-0.00029657,-0.00
 058148,-0.00010962,0.00000618,-0.00006561,-0.00001453,0.00003309,0.000
 02768,-0.00001910,-0.00002108,0.00002769,0.00001072,0.00000366,-0.0000
 1886,-0.00005498,0.00002077,0.00000206,0.00001002,0.00001679,-0.000018
 72,-0.00000603,-0.00003291,0.00002057,0.00001060,0.00001936,-0.0000129
 3,-0.00001000,-0.00000359,-0.00000613,-0.00002048,0.00000490,0.0000059
 1,0.00004046,-0.00002419,0.00002656,0.00002067,0.00003458,-0.00000215,
 -0.00002247,0.00000171,-0.00002502,0.00002500,-0.00001576,-0.00001532,
 -0.00002640,-0.00001474,0.00001165,-0.00000520,-0.00000955,0.00000081,
 -0.00002316,0.00001271,0.00005270,0.00000267,0.00000570,0.00000255,0.0
 0001538,0.00001011,-0.00001187,-0.00001634,0.00310558,-0.00062902,-0.0
 0122095,0.00397571,0.00345782,0.00082367,-0.00001318,-0.00002237,0.000
 02231,0.00000099,0.00000053,0.00001952,-0.00000535,-0.00000556,-0.0000
 1314,-0.00001007,0.00000569,0.00000274,-0.00000070,0.00000018,-0.00000
 375,0.00000029,-0.00000604,-0.00002019,0.00001040,-0.00001266,-0.00001
 375,-0.00002302,-0.00000537,0.00001695,0.00000677,-0.00000622,0.000004
 89,0.00000572,-0.00000210,0.00000934,-0.00000381,0.00004525,-0.0000080
 3,0.00000158,-0.00000347,-0.00000090,-0.00000526,0.00000169,0.00000757
 ,0.00000256,-0.00000314,-0.00000504,0.00001018,-0.00000364,0.00001324,
 -0.00001460,0.00000923,-0.00000171,-0.00000387,0.00000263,0.00000467,-
 0.00000083,-0.00000262,-0.00000647,0.11459709,-0.14145876,-0.08906338,
 0.00633275,-0.00497542,-0.00771825,-0.00225861,-0.00221928,0.00073838,
 0.00047287,-0.00015199,-0.00044196,0.00000527,0.00000423,0.00000267,0.
 00000119,-0.00000127,-0.00000107,0.00000157,-0.00000001,0.00000189,-0.
 00000194,0.00000183,-0.00000037,-0.00000272,0.00000393,-0.00000236,0.0
 0000007,-0.00000058,-0.00000248,-0.00000309,0.00000413,-0.00000211,-0.
 00000179,0.00000141,-0.00000321,0.00000227,-0.00000210,-0.00000217,-0.
 00000006,-0.00000055,-0.00000386,0.00000278,0.00000021,0.00000263,0.00
 000362,-0.00000188,-0.00000034,-0.12630553,0.14291464,-0.00317083,-0.0
 0145357,-0.00525843,-0.00067292,0.00035818,-0.00062894,-0.00000846,0.0
 0018707,-0.00001564,0.00093113,-0.00073085,0.00085018,0.00040237,-0.00
 028313,-0.00075384,0.00009226,-0.00007574,-0.00009250,-0.00004036,0.00
 002139,0.00003286,-0.00003132,0.00001015,-0.00003072,0.00001391,-0.000
 01366,-0.00001299,0.00001670,-0.00001331,0.00000857,0.00000577,-0.0000
 0689,-0.00001453,-0.00002325,0.00001645,-0.00000559,0.00001150,-0.0000
 0804,0.00000393,-0.00000644,-0.00000259,-0.00002668,0.00000709,0.00000
 412,0.00002814,-0.00001963,0.00001682,0.00001337,0.00000488,-0.0000054
 1,0.00002219,0.00004160,-0.00001964,0.00000174,0.00002398,-0.00001458,
 -0.00001056,-0.00002320,0.00001510,-0.00000153,-0.00000685,-0.00000311
 ,-0.00002584,-0.00003418,0.00000344,-0.00000887,-0.00000242,-0.0000026
 7,-0.00001270,0.00001874,-0.00001287,0.00000136,0.02115816,-0.01887293
 ,-0.01135044,-0.00319320,0.00024247,-0.00077729,-0.00000501,0.00001661
 ,0.00000741,0.00001496,0.00000582,0.00005068,0.00000414,-0.00000993,-0
 .00002909,-0.00000666,0.00000711,0.00000589,-0.00000041,-0.00000127,-0
 .00000448,-0.00000165,-0.00000351,-0.00001561,0.00001004,-0.00000938,-
 0.00000898,-0.00003877,0.00004393,0.00002902,0.00001214,-0.00000973,-0
 .00000684,0.00000587,-0.00000021,0.00001244,0.00002474,-0.00002753,0.0
 0001103,0.00000275,-0.00000182,-0.00000168,-0.00000412,0.00000578,0.00
 000543,-0.00000188,-0.00000096,-0.00000758,0.00000737,-0.00000260,0.00
 000842,-0.00000977,0.00000642,-0.00000221,-0.00000283,0.00000507,0.000
 00890,0.00000155,-0.00000306,-0.00000793,0.08534402,-0.08902481,-0.131
 30515,-0.01038313,0.01013752,0.01125455,0.00044869,0.00114266,0.000896
 50,-0.00063895,0.00048868,0.00043889,0.00000240,-0.00000203,0.00000607
 ,0.00000062,-0.00000084,-0.00000148,0.00000108,-0.00000032,0.00000204,
 -0.00000232,0.00000144,-0.00000009,-0.00000092,0.00000066,0.00000274,-
 0.00000022,-0.00000056,-0.00000220,-0.00000723,0.00000301,-0.00000448,
 -0.00000283,0.00000089,-0.00000264,0.00000209,-0.00000217,-0.00000221,
 -0.00000022,-0.00000112,-0.00000376,0.00000251,-0.00000135,0.00000285,
 0.00000279,-0.00000199,0.00000069,-0.09121470,0.09733602,0.13610162,-0
 .00088257,0.00053967,0.00027135,-0.00052393,0.00572953,0.00090615,0.00
 107221,0.00012285,0.00034977,-0.00023347,-0.00026605,0.00003764,-0.000
 28386,-0.00017348,0.00054554,0.00000124,0.00004220,0.00000005,0.000021
 95,-0.00002460,0.00001356,-0.00000726,-0.00000781,0.00003105,0.0000181
 3,-0.00000413,-0.00004011,0.00000024,0.,-0.00000589,0.00000348,-0.0000
 0066,0.00000350,-0.00001759,0.00001694,0.00001061,0.00001303,-0.000010
 73,-0.00000546,-0.00000403,0.00000050,-0.00000173,0.00000182,0.0000054
 7,0.00001478,-0.00000908,0.00000757,0.00001016,0.00002809,-0.00002575,
 -0.00002005,-0.00001765,0.00002624,0.00002368,0.00001231,0.00001233,-0
 .00006435,0.00000223,0.00000898,0.00000324,-0.00001368,0.00000316,-0.0
 0001001,-0.00001764,-0.00000353,0.00008112,-0.00000291,0.00000361,0.00
 001915,0.00000284,-0.00000405,-0.00001568,-0.00178402,0.00487253,-0.00
 215677,0.00640528,0.00311363,0.02116289,0.00005002,0.00000756,0.000037
 80,-0.00001745,-0.00001590,-0.00003050,-0.00000484,0.00000399,0.000008
 77,-0.00000021,-0.00000104,-0.00000201,-0.00000093,-0.00000084,-0.0000
 0005,0.00000130,-0.00000365,-0.00000626,0.00000246,-0.00000339,-0.0000
 0592,0.00001730,-0.00001720,-0.00000664,-0.00000357,0.00000263,0.00001
 327,0.00000274,-0.00000310,0.00000140,-0.00002333,-0.00001079,-0.00000
 253,0.00000060,0.00000039,0.00000084,0.00000165,-0.00000259,-0.0000013
 0,0.00000052,-0.00000082,0.00000159,0.00000357,-0.00000122,0.00000575,
 -0.00000578,0.00000381,-0.00000003,-0.00000270,-0.00000077,0.00000110,
 -0.00000338,0.00000162,-0.00000293,0.00014695,-0.00622431,-0.02496020,
 -0.05787172,0.00403722,-0.04275050,-0.00006209,-0.00013115,-0.00134120
 ,-0.00050853,-0.00239154,0.00028380,0.00000516,-0.00000163,0.00000033,
 0.00000025,-0.00000018,-0.00000051,0.00000043,0.00000012,0.00000008,-0
 .00000018,0.00000044,-0.00000024,0.00000326,0.00000259,-0.00000074,-0.
 00000059,0.00000017,-0.00000057,0.00000028,0.00000087,0.00000029,0.000
 00013,0.00000006,-0.00000134,0.00000054,-0.00000006,-0.00000022,-0.000
 00009,0.,-0.00000055,-0.00000153,0.00000276,-0.00000047,0.00000068,0.0
 0000012,-0.00000061,-0.00040356,-0.00188617,0.00093881,0.05488750,0.00
 046738,-0.00052950,0.00011036,0.00594827,0.00225873,-0.00253534,-0.000
 20833,0.00107635,-0.00057723,-0.00024639,-0.00040053,0.00017463,-0.000
 24662,-0.00067963,-0.00032081,0.00004257,0.00002936,-0.00000569,-0.000
 01964,-0.00000825,-0.00001182,-0.00002678,-0.00001750,-0.00001721,0.00
 000306,0.00002885,0.00000651,0.00000847,-0.00000015,0.00001051,0.00000
 777,-0.00000614,-0.00000587,0.00000936,-0.00000646,-0.00000607,-0.0000
 0926,0.00000476,-0.00000644,0.00000803,-0.00000940,-0.00000380,0.00000
 385,0.00000293,0.00000771,-0.00000769,0.00000380,0.00000331,-0.0000083
 8,0.00000453,-0.00000474,0.00002587,-0.00000998,-0.00000438,0.00002936
 ,0.00004425,0.00002778,-0.00000082,0.00001132,-0.00000979,0.00000284,-
 0.00000779,-0.00000273,-0.00002914,-0.00005772,-0.00007274,0.00000603,
 -0.00000854,0.00000524,-0.00000320,0.00000571,-0.00000087,0.00462871,0
 .00274305,-0.00003417,-0.00429271,-0.00062280,-0.01887484,-0.00000058,
 0.00003607,-0.00003092,-0.00000426,-0.00001166,0.00004227,-0.00000208,
 -0.00000401,-0.00000883,-0.00000506,0.00000328,0.00000187,-0.00000122,
 -0.00000156,-0.00000108,-0.00000181,-0.00000146,-0.00000507,0.00000362
 ,-0.00000311,-0.00000238,-0.00002289,0.00001528,0.00001134,0.00000403,
 -0.00001192,-0.00001233,-0.00000128,0.00000014,0.00000499,-0.00001333,
 -0.00002378,0.00001637,0.00000143,-0.00000069,-0.00000160,-0.00000247,
 0.00000164,0.00000463,0.00000063,-0.00000265,-0.00000305,0.00000219,-0
 .00000144,0.00000231,-0.00000284,0.00000144,-0.00000064,-0.00000153,-0
 .00000187,0.00000441,0.00000334,-0.00000241,-0.00000070,0.00126596,0.0
 0505400,0.01399708,0.00406602,-0.05341337,-0.05509323,0.00025917,0.000
 33102,0.00067462,-0.00222976,-0.00209765,0.00118003,-0.00000039,0.0000
 0307,0.00000033,0.00000063,-0.00000038,-0.00000048,0.00000088,0.000000
 19,0.00000081,-0.00000048,0.00000089,0.00000003,0.00000059,0.00000644,
 -0.00000122,0.00000028,-0.00000046,-0.00000052,-0.00000080,0.00000173,
 -0.00000076,-0.00000064,0.00000095,-0.00000091,0.00000109,-0.00000055,
 -0.00000112,0.,-0.00000029,-0.00000147,0.00000491,-0.00000052,0.000001
 24,0.00000184,-0.00000010,0.00000031,-0.00206535,-0.00184913,0.0005473
 2,-0.00735245,0.04812363,0.00002048,0.00028638,0.00078350,0.00165768,-
 0.00306562,0.00081361,-0.00077146,0.00021460,-0.00001608,0.00010318,0.
 00012838,0.00005372,0.00030077,-0.00014825,-0.00054160,0.00000114,-0.0
 0000637,0.00004222,0.00003043,-0.00002377,-0.00002623,-0.00003302,0.00
 002805,-0.00001532,-0.00001579,-0.00001063,-0.00004452,0.00002267,-0.0
 0000963,0.00002420,0.00003195,-0.00002596,-0.00001039,-0.00001491,0.00
 001190,0.00000671,-0.00000058,-0.00000991,-0.00003471,0.00002379,-0.00
 002180,-0.00001952,0.00000932,0.00001160,0.00006464,-0.00004139,0.0000
 3970,0.00003278,0.00003861,-0.00004619,-0.00006393,0.00002230,-0.00000
 342,0.00005123,-0.00000703,-0.00001270,-0.00000275,-0.00002987,0.00001
 361,-0.00001165,-0.00001113,-0.00000194,-0.00003803,-0.00000542,-0.000
 01178,-0.00010937,0.00002739,-0.00000053,0.00005763,-0.00001298,-0.000
 00282,-0.00003666,-0.00297532,0.00054640,0.00076924,-0.00384670,-0.001
 22550,-0.01135528,0.00001011,-0.00001147,0.00003045,0.00000843,0.00001
 481,0.00004288,-0.00001176,0.00000566,-0.00001177,-0.00001558,0.000011
 44,0.00000066,-0.00000133,-0.00000016,-0.00000586,-0.00000005,-0.00000
 946,-0.00003328,0.00001774,-0.00001908,-0.00002199,-0.00002562,0.00002
 478,0.00001822,0.00001794,-0.00001563,-0.00001544,0.00000753,0.0000006
 6,0.00001793,-0.00001005,0.00002141,0.00001111,0.00000436,-0.00000408,
 -0.00000260,-0.00000089,0.00000435,0.00001107,0.00000648,-0.00000650,-
 0.00000782,0.00001727,-0.00000582,0.00002094,-0.00002248,0.00001521,-0
 .00000260,-0.00000146,0.00000621,0.00001321,0.00000286,-0.00000478,-0.
 00000916,0.00032878,-0.00386536,-0.01044966,-0.04268817,-0.05512411,-0
 .32216303,-0.00002163,-0.00025695,-0.00060589,0.00084675,0.00077950,0.
 00063902,0.00000455,-0.00000264,0.00000460,0.00000223,-0.00000241,-0.0
 0000262,0.00000265,-0.00000100,0.00000348,-0.00000336,0.00000224,0.000
 00008,-0.00000744,0.00000349,0.00000133,-0.00000023,-0.00000077,-0.000
 00323,-0.00000534,0.00000321,-0.00000049,-0.00000367,0.00000074,-0.000
 00548,0.00000366,-0.00000386,-0.00000376,-0.00000055,-0.00000147,-0.00
 000613,0.00000680,-0.00000389,0.00000565,0.00000520,-0.00000379,0.0000
 0069,0.00034484,0.00097091,0.00062599,0.04665732,0.06082486,0.34153010
 \\0.00004712,-0.00002122,0.00003075,-0.00004726,0.00002544,-0.00003144
 ,-0.00001650,-0.00000407,-0.00004931,0.00004407,-0.00004129,-0.0000244
 3,-0.00001428,0.00002494,0.00003597,0.00010555,-0.00005584,0.00006226,
 -0.00010527,0.00006803,-0.00002154,0.00011330,-0.00004431,0.00010089,-
 0.00010073,0.00003371,-0.00011465,-0.00006022,0.00008744,0.00015971,0.
 00005405,-0.00008566,-0.00015684,0.00010489,-0.00005500,0.00006547,0.0
 0001650,0.00000407,0.00004931,0.00001428,-0.00002494,-0.00003597,-0.00
 004712,0.00002122,-0.00003075,0.00004726,-0.00002544,0.00003144,0.0001
 0527,-0.00006803,0.00002154,-0.00011330,0.00004431,-0.00010089,0.00010
 073,-0.00003371,0.00011465,-0.00005405,0.00008566,0.00015684,0.0000602
 2,-0.00008744,-0.00015971,-0.00010489,0.00005500,-0.00006547,-0.000105
 55,0.00005584,-0.00006226,-0.00004407,0.00004129,0.00002443,-0.0000172
 4,0.00002815,0.00004619,-0.00000842,0.00002282,0.00005242,-0.00001780,
 0.00001464,0.00000259,0.00002457,-0.00002060,-0.00000440,-0.00003954,0
 .00000353,-0.00008790,-0.00007785,0.00006174,0.00001887,-0.00001304,0.
 00000193,-0.00001994,0.00001724,-0.00002815,-0.00004619,0.00000842,-0.
 00002282,-0.00005242,-0.00002457,0.00002060,0.00000440,0.00007785,-0.0
 0006174,-0.00001887,0.00003954,-0.00000353,0.00008790,0.00001304,-0.00
 000193,0.00001994,0.00001780,-0.00001464,-0.00000259,-0.00002735,0.000
 05091,0.00010460,0.00003647,-0.00005450,-0.00009502,0.00005931,-0.0000
 2505,0.00006304,-0.00007901,0.00004771,-0.00001937,-0.00003647,0.00005
 450,0.00009502,0.00002735,-0.00005091,-0.00010460,-0.00005931,0.000025
 05,-0.00006304,0.00007901,-0.00004771,0.00001937,0.00000876,-0.0000077
 3,-0.00000998,0.00000331,-0.00000522,-0.00001564,0.00002061,-0.0000056
 0,0.00002831,0.00002764,-0.00001951,0.00000424,-0.00000876,0.00000773,
 0.00000998,-0.00000331,0.00000522,0.00001564,-0.00002764,0.00001951,-0
 .00000424,-0.00002061,0.00000560,-0.00002831,0.00000723,-0.00000709,-0
 .00000668,-0.00000111,0.00000448,0.00001585,-0.00001372,0.00000297,-0.
 00001522,0.00001236,-0.00001077,0.00000112,0.00000111,-0.00000448,-0.0
 0001585,-0.00000723,0.00000709,0.00000668,0.00001372,-0.00000297,0.000
 01522,-0.00001236,0.00001077,-0.00000112\\\@


 SOME PHYSICISTS WOULD PREFER TO COME BACK TO THE IDEA OF AN OBJECTIVE
 REAL WORLD WHOSE SMALLEST PARTS EXIST OBJECTIVELY IN THE SAME SENSE AS
 STONES OR TREES EXIST INDEPENDENTLY OF WHETHER WE OBSERVE THEM.
 THIS, HOWEVER, IS IMPOSSIBLE.  -- WERNER HEISENBERG
 Job cpu time:  0 days  3 hours 50 minutes 16.1 seconds.
 File lengths (MBytes):  RWF=   1630 Int=      0 D2E=      0 Chk=     28 Scr=      1
 Normal termination of Gaussian 09 at Mon Jan 22 19:29:42 2018.
