 Entering Gaussian System, Link 0=g09
 Input=Base-Fructuose.inp
 Output=Base-Fructuose.log
 Initial command:
 /usr/local/g09/l1.exe /home/g09scr/Gau-31543.inp -scrdir=/home/g09scr/
 Entering Link 1 = /usr/local/g09/l1.exe PID=     31545.
  
 Copyright (c) 1988,1990,1992,1993,1995,1998,2003,2009,2010,
            Gaussian, Inc.  All Rights Reserved.
  
 This is part of the Gaussian(R) 09 program.  It is based on
 the Gaussian(R) 03 system (copyright 2003, Gaussian, Inc.),
 the Gaussian(R) 98 system (copyright 1998, Gaussian, Inc.),
 the Gaussian(R) 94 system (copyright 1995, Gaussian, Inc.),
 the Gaussian 92(TM) system (copyright 1992, Gaussian, Inc.),
 the Gaussian 90(TM) system (copyright 1990, Gaussian, Inc.),
 the Gaussian 88(TM) system (copyright 1988, Gaussian, Inc.),
 the Gaussian 86(TM) system (copyright 1986, Carnegie Mellon
 University), and the Gaussian 82(TM) system (copyright 1983,
 Carnegie Mellon University). Gaussian is a federally registered
 trademark of Gaussian, Inc.
  
 This software contains proprietary and confidential information,
 including trade secrets, belonging to Gaussian, Inc.
  
 This software is provided under written license and may be
 used, copied, transmitted, or stored only in accord with that
 written license.
  
 The following legend is applicable only to US Government
 contracts under FAR:
  
                    RESTRICTED RIGHTS LEGEND
  
 Use, reproduction and disclosure by the US Government is
 subject to restrictions as set forth in subparagraphs (a)
 and (c) of the Commercial Computer Software - Restricted
 Rights clause in FAR 52.227-19.
  
 Gaussian, Inc.
 340 Quinnipiac St., Bldg. 40, Wallingford CT 06492
  
  
 ---------------------------------------------------------------
 Warning -- This program may not be used in any manner that
 competes with the business of Gaussian, Inc. or will provide
 assistance to any competitor of Gaussian, Inc.  The licensee
 of this program is prohibited from giving any competitor of
 Gaussian, Inc. access to this program.  By using this program,
 the user acknowledges that Gaussian, Inc. is engaged in the
 business of creating and licensing software in the field of
 computational chemistry and represents and warrants to the
 licensee that it is not a competitor of Gaussian, Inc. and that
 it will not use this program in any manner prohibited above.
 ---------------------------------------------------------------
  

 Cite this work as:
 Gaussian 09, Revision B.01,
 M. J. Frisch, G. W. Trucks, H. B. Schlegel, G. E. Scuseria, 
 M. A. Robb, J. R. Cheeseman, G. Scalmani, V. Barone, B. Mennucci, 
 G. A. Petersson, H. Nakatsuji, M. Caricato, X. Li, H. P. Hratchian, 
 A. F. Izmaylov, J. Bloino, G. Zheng, J. L. Sonnenberg, M. Hada, 
 M. Ehara, K. Toyota, R. Fukuda, J. Hasegawa, M. Ishida, T. Nakajima, 
 Y. Honda, O. Kitao, H. Nakai, T. Vreven, J. A. Montgomery, Jr., 
 J. E. Peralta, F. Ogliaro, M. Bearpark, J. J. Heyd, E. Brothers, 
 K. N. Kudin, V. N. Staroverov, T. Keith, R. Kobayashi, J. Normand, 
 K. Raghavachari, A. Rendell, J. C. Burant, S. S. Iyengar, J. Tomasi, 
 M. Cossi, N. Rega, J. M. Millam, M. Klene, J. E. Knox, J. B. Cross, 
 V. Bakken, C. Adamo, J. Jaramillo, R. Gomperts, R. E. Stratmann, 
 O. Yazyev, A. J. Austin, R. Cammi, C. Pomelli, J. W. Ochterski, 
 R. L. Martin, K. Morokuma, V. G. Zakrzewski, G. A. Voth, 
 P. Salvador, J. J. Dannenberg, S. Dapprich, A. D. Daniels, 
 O. Farkas, J. B. Foresman, J. V. Ortiz, J. Cioslowski, 
 and D. J. Fox, Gaussian, Inc., Wallingford CT, 2010.
 
 ******************************************
 Gaussian 09:  EM64L-G09RevB.01 12-Aug-2010
                 4-Jan-2018 
 ******************************************
 %nproc=4
 Will use up to    4 processors via shared memory.
 %mem=60gb
 -----------------------
 #B3LYP/6-31G* fopt test
 -----------------------
 1/14=-1,18=20,19=15,26=3,38=1/1,3;
 2/9=110,12=2,14=103,17=6,18=5,40=1/2;
 3/5=1,6=6,7=1,11=2,16=1,25=1,30=1,71=1,74=-5/1,2,3;
 4//1;
 5/5=2,38=5/2;
 6/7=2,8=2,9=2,10=2,28=1/1;
 7//1,2,3,16;
 1/14=-1,18=20,19=15/3(2);
 2/9=110/2;
 99//99;
 2/9=110/2;
 3/5=1,6=6,7=1,11=2,16=1,25=1,30=1,71=1,74=-5/1,2,3;
 4/5=5,16=3/1;
 5/5=2,38=5/2;
 7//1,2,3,16;
 1/14=-1,18=20,19=15/3(-5);
 2/9=110/2;
 6/7=2,8=2,9=2,10=2,19=2,28=1/1;
 99/9=1/99;
 -------------------------
 Sugars/Base-Fructuose.xyz
 -------------------------
 Symbolic Z-matrix:
 Charge =  0 Multiplicity = 1
 C                     0.        0.        0. 
 O                     0.        0.        1.41352 
 H                     0.92749   0.        1.70592 
 H                     0.51803  -0.89725  -0.34815 
 H                     0.51786   0.89695  -0.34677 
 C                    -1.42147   0.       -0.52884 
 O                    -2.38889  -0.0311    0.23329 
 C                    -1.59838   0.00492  -2.04619 
 C                    -0.31243  -0.1959   -2.86228 
 C                    -0.49488  -0.21947  -4.39139 
 C                     0.83061  -0.44571  -5.11913 
 H                     1.25656  -1.42295  -4.86871 
 H                     1.55846   0.33828  -4.89309 
 O                     0.59341  -0.42317  -6.52308 
 H                     1.44927  -0.57466  -6.959 
 H                    -2.33159  -0.77202  -2.28778 
 O                    -2.17401   1.25038  -2.42063 
 H                    -1.50696   1.9425   -2.27147 
 H                     0.09873  -1.16858  -2.56265 
 O                     0.66193   0.78014  -2.50533 
 H                     1.539     0.42045  -2.71983 
 H                    -1.07028  -1.09948  -4.69975 
 O                    -1.04624   1.02011  -4.83495 
 H                    -1.89903   1.14607  -4.38497 
 

 GradGradGradGradGradGradGradGradGradGradGradGradGradGradGradGradGradGrad
 Berny optimization.
 Initialization pass.
                           ----------------------------
                           !    Initial Parameters    !
                           ! (Angstroms and Degrees)  !
 --------------------------                            --------------------------
 ! Name  Definition              Value          Derivative Info.                !
 --------------------------------------------------------------------------------
 ! R1    R(1,2)                  1.4135         estimate D2E/DX2                !
 ! R2    R(1,4)                  1.093          estimate D2E/DX2                !
 ! R3    R(1,5)                  1.0922         estimate D2E/DX2                !
 ! R4    R(1,6)                  1.5167         estimate D2E/DX2                !
 ! R5    R(2,3)                  0.9725         estimate D2E/DX2                !
 ! R6    R(6,7)                  1.232          estimate D2E/DX2                !
 ! R7    R(6,8)                  1.5276         estimate D2E/DX2                !
 ! R8    R(8,9)                  1.5362         estimate D2E/DX2                !
 ! R9    R(8,16)                 1.0953         estimate D2E/DX2                !
 ! R10   R(8,17)                 1.4222         estimate D2E/DX2                !
 ! R11   R(9,10)                 1.5401         estimate D2E/DX2                !
 ! R12   R(9,19)                 1.0977         estimate D2E/DX2                !
 ! R13   R(9,20)                 1.4246         estimate D2E/DX2                !
 ! R14   R(10,11)                1.529          estimate D2E/DX2                !
 ! R15   R(10,22)                1.0957         estimate D2E/DX2                !
 ! R16   R(10,23)                1.4273         estimate D2E/DX2                !
 ! R17   R(11,12)                1.0951         estimate D2E/DX2                !
 ! R18   R(11,13)                1.0934         estimate D2E/DX2                !
 ! R19   R(11,14)                1.424          estimate D2E/DX2                !
 ! R20   R(14,15)                0.9724         estimate D2E/DX2                !
 ! R21   R(17,18)                0.9727         estimate D2E/DX2                !
 ! R22   R(20,21)                0.9719         estimate D2E/DX2                !
 ! R23   R(23,24)                0.9724         estimate D2E/DX2                !
 ! A1    A(2,1,4)              108.574          estimate D2E/DX2                !
 ! A2    A(2,1,5)              108.511          estimate D2E/DX2                !
 ! A3    A(2,1,6)              110.407          estimate D2E/DX2                !
 ! A4    A(4,1,5)              110.3838         estimate D2E/DX2                !
 ! A5    A(4,1,6)              109.4597         estimate D2E/DX2                !
 ! A6    A(5,1,6)              109.4917         estimate D2E/DX2                !
 ! A7    A(1,2,3)              107.498          estimate D2E/DX2                !
 ! A8    A(1,6,7)              121.351          estimate D2E/DX2                !
 ! A9    A(1,6,8)              117.057          estimate D2E/DX2                !
 ! A10   A(7,6,8)              121.5748         estimate D2E/DX2                !
 ! A11   A(6,8,9)              115.486          estimate D2E/DX2                !
 ! A12   A(6,8,16)             107.118          estimate D2E/DX2                !
 ! A13   A(6,8,17)             108.1312         estimate D2E/DX2                !
 ! A14   A(9,8,16)             110.516          estimate D2E/DX2                !
 ! A15   A(9,8,17)             108.265          estimate D2E/DX2                !
 ! A16   A(16,8,17)            106.9882         estimate D2E/DX2                !
 ! A17   A(8,9,10)             115.484          estimate D2E/DX2                !
 ! A18   A(8,9,19)             106.5212         estimate D2E/DX2                !
 ! A19   A(8,9,20)             110.4787         estimate D2E/DX2                !
 ! A20   A(10,9,19)            107.567          estimate D2E/DX2                !
 ! A21   A(10,9,20)            109.894          estimate D2E/DX2                !
 ! A22   A(19,9,20)            106.4113         estimate D2E/DX2                !
 ! A23   A(9,10,11)            111.847          estimate D2E/DX2                !
 ! A24   A(9,10,22)            110.7269         estimate D2E/DX2                !
 ! A25   A(9,10,23)            109.938          estimate D2E/DX2                !
 ! A26   A(11,10,22)           101.6812         estimate D2E/DX2                !
 ! A27   A(11,10,23)           108.3891         estimate D2E/DX2                !
 ! A28   A(22,10,23)           114.0277         estimate D2E/DX2                !
 ! A29   A(10,11,12)           111.1251         estimate D2E/DX2                !
 ! A30   A(10,11,13)           111.876          estimate D2E/DX2                !
 ! A31   A(10,11,14)           108.815          estimate D2E/DX2                !
 ! A32   A(12,11,13)           109.4922         estimate D2E/DX2                !
 ! A33   A(12,11,14)           107.721          estimate D2E/DX2                !
 ! A34   A(13,11,14)           107.6593         estimate D2E/DX2                !
 ! A35   A(11,14,15)           107.032          estimate D2E/DX2                !
 ! A36   A(8,17,18)            107.768          estimate D2E/DX2                !
 ! A37   A(9,20,21)            107.96           estimate D2E/DX2                !
 ! A38   A(10,23,24)           107.906          estimate D2E/DX2                !
 ! D1    D(4,1,2,3)             60.0            estimate D2E/DX2                !
 ! D2    D(5,1,2,3)            -60.0            estimate D2E/DX2                !
 ! D3    D(6,1,2,3)            180.0            estimate D2E/DX2                !
 ! D4    D(2,1,6,7)             -1.694          estimate D2E/DX2                !
 ! D5    D(2,1,6,8)            179.793          estimate D2E/DX2                !
 ! D6    D(4,1,6,7)            117.7715         estimate D2E/DX2                !
 ! D7    D(4,1,6,8)            -60.7415         estimate D2E/DX2                !
 ! D8    D(5,1,6,7)           -121.102          estimate D2E/DX2                !
 ! D9    D(5,1,6,8)             60.385          estimate D2E/DX2                !
 ! D10   D(1,6,8,9)              8.5094         estimate D2E/DX2                !
 ! D11   D(1,6,8,16)           132.0862         estimate D2E/DX2                !
 ! D12   D(1,6,8,17)          -112.9186         estimate D2E/DX2                !
 ! D13   D(7,6,8,9)           -170.0            estimate D2E/DX2                !
 ! D14   D(7,6,8,16)           -46.4233         estimate D2E/DX2                !
 ! D15   D(7,6,8,17)            68.5719         estimate D2E/DX2                !
 ! D16   D(6,8,9,10)           178.812          estimate D2E/DX2                !
 ! D17   D(6,8,9,19)            59.463          estimate D2E/DX2                !
 ! D18   D(6,8,9,20)           -55.7099         estimate D2E/DX2                !
 ! D19   D(16,8,9,10)           57.041          estimate D2E/DX2                !
 ! D20   D(16,8,9,19)          -62.308          estimate D2E/DX2                !
 ! D21   D(16,8,9,20)         -177.4809         estimate D2E/DX2                !
 ! D22   D(17,8,9,10)          -59.832          estimate D2E/DX2                !
 ! D23   D(17,8,9,19)         -179.181          estimate D2E/DX2                !
 ! D24   D(17,8,9,20)           65.6461         estimate D2E/DX2                !
 ! D25   D(6,8,17,18)           68.9957         estimate D2E/DX2                !
 ! D26   D(9,8,17,18)          -56.798          estimate D2E/DX2                !
 ! D27   D(16,8,17,18)        -175.9239         estimate D2E/DX2                !
 ! D28   D(8,9,10,11)         -179.0869         estimate D2E/DX2                !
 ! D29   D(8,9,10,22)          -66.447          estimate D2E/DX2                !
 ! D30   D(8,9,10,23)           60.45           estimate D2E/DX2                !
 ! D31   D(19,9,10,11)         -60.315          estimate D2E/DX2                !
 ! D32   D(19,9,10,22)          52.325          estimate D2E/DX2                !
 ! D33   D(19,9,10,23)         179.222          estimate D2E/DX2                !
 ! D34   D(20,9,10,11)          55.135          estimate D2E/DX2                !
 ! D35   D(20,9,10,22)         167.7749         estimate D2E/DX2                !
 ! D36   D(20,9,10,23)         -65.328          estimate D2E/DX2                !
 ! D37   D(8,9,20,21)          155.845          estimate D2E/DX2                !
 ! D38   D(10,9,20,21)         -75.577          estimate D2E/DX2                !
 ! D39   D(19,9,20,21)          40.603          estimate D2E/DX2                !
 ! D40   D(9,10,11,12)          62.961          estimate D2E/DX2                !
 ! D41   D(9,10,11,13)         -59.764          estimate D2E/DX2                !
 ! D42   D(9,10,11,14)        -178.59           estimate D2E/DX2                !
 ! D43   D(22,10,11,12)        -55.2197         estimate D2E/DX2                !
 ! D44   D(22,10,11,13)       -177.9447         estimate D2E/DX2                !
 ! D45   D(22,10,11,14)         63.2294         estimate D2E/DX2                !
 ! D46   D(23,10,11,12)       -175.677          estimate D2E/DX2                !
 ! D47   D(23,10,11,13)         61.598          estimate D2E/DX2                !
 ! D48   D(23,10,11,14)        -57.228          estimate D2E/DX2                !
 ! D49   D(9,10,23,24)         -58.877          estimate D2E/DX2                !
 ! D50   D(11,10,23,24)        178.5924         estimate D2E/DX2                !
 ! D51   D(22,10,23,24)         66.1465         estimate D2E/DX2                !
 ! D52   D(10,11,14,15)       -179.647          estimate D2E/DX2                !
 ! D53   D(12,11,14,15)        -59.0769         estimate D2E/DX2                !
 ! D54   D(13,11,14,15)         58.9154         estimate D2E/DX2                !
 --------------------------------------------------------------------------------
 Trust Radius=3.00D-01 FncErr=1.00D-07 GrdErr=1.00D-06
 Number of steps in this run=    125 maximum allowed number of steps=    144.
 GradGradGradGradGradGradGradGradGradGradGradGradGradGradGradGradGradGrad

                          Input orientation:                          
 ---------------------------------------------------------------------
 Center     Atomic      Atomic             Coordinates (Angstroms)
 Number     Number       Type             X           Y           Z
 ---------------------------------------------------------------------
      1          6           0        0.000000    0.000000    0.000000
      2          8           0        0.000000    0.000000    1.413516
      3          1           0        0.927487    0.000000    1.705916
      4          1           0        0.518025   -0.897246   -0.348146
      5          1           0        0.517855    0.896952   -0.346765
      6          6           0       -1.421472    0.000000   -0.528838
      7          8           0       -2.388894   -0.031101    0.233292
      8          6           0       -1.598381    0.004915   -2.046186
      9          6           0       -0.312426   -0.195902   -2.862275
     10          6           0       -0.494879   -0.219473   -4.391388
     11          6           0        0.830614   -0.445708   -5.119133
     12          1           0        1.256558   -1.422948   -4.868705
     13          1           0        1.558462    0.338284   -4.893094
     14          8           0        0.593408   -0.423171   -6.523080
     15          1           0        1.449268   -0.574656   -6.958995
     16          1           0       -2.331590   -0.772020   -2.287782
     17          8           0       -2.174011    1.250380   -2.420629
     18          1           0       -1.506963    1.942496   -2.271473
     19          1           0        0.098732   -1.168576   -2.562645
     20          8           0        0.661927    0.780142   -2.505325
     21          1           0        1.539004    0.420454   -2.719826
     22          1           0       -1.070281   -1.099481   -4.699752
     23          8           0       -1.046239    1.020107   -4.834945
     24          1           0       -1.899034    1.146066   -4.384966
 ---------------------------------------------------------------------
                    Distance matrix (angstroms):
                    1          2          3          4          5
     1  C    0.000000
     2  O    1.413516   0.000000
     3  H    1.941747   0.972486   0.000000
     4  H    1.092980   2.043735   2.278570   0.000000
     5  H    1.092219   2.042373   2.277240   1.794199   0.000000
     6  C    1.516658   2.406932   3.242180   2.144609   2.144449
     7  O    2.400460   2.664716   3.628770   3.088439   3.105952
     8  C    2.596483   3.811087   4.523086   2.859442   2.856959
     9  C    2.885932   4.291664   4.737524   2.739047   2.865569
    10  C    4.424631   5.830093   6.264855   4.222932   4.316365
    11  C    5.205199   6.600309   6.840273   4.802491   4.967499
    12  H    5.225706   6.562775   6.734888   4.610558   5.135714
    13  H    5.146417   6.505119   6.637733   4.823442   4.697242
    14  O    6.563671   7.969991   8.246639   6.193564   6.316273
    15  H    7.131495   8.516428   8.699607   6.683906   6.837744
    16  H    3.356527   4.442064   5.212218   3.449373   3.830451
    17  O    3.485573   4.581533   5.311414   4.019271   3.416426
    18  H    3.347210   4.429828   5.051679   3.982951   2.982876
    19  H    2.818238   4.145500   4.502557   2.270117   3.058136
    20  O    2.706182   4.050196   4.291118   2.736377   2.166514
    21  H    3.153216   4.430557   4.487530   2.898896   2.627016
    22  H    4.943888   6.302889   6.799450   4.636819   5.045435
    23  O    5.050933   6.417048   6.907899   5.123917   4.754505
    24  H    4.914033   6.208236   6.811867   5.129641   4.712799
                    6          7          8          9         10
     6  C    0.000000
     7  O    1.231956   0.000000
     8  C    1.527634   2.412929   0.000000
     9  C    2.591002   3.731141   1.536232   0.000000
    10  C    3.978195   5.001044   2.601546   1.540140   0.000000
    11  C    5.132383   6.259839   3.942852   2.542116   1.528963
    12  H    5.294438   6.423156   4.260996   2.827210   2.178007
    13  H    5.295392   6.480579   4.263998   2.812437   2.186095
    14  O    6.337961   7.395702   5.002977   3.778052   2.402077
    15  H    7.065288   8.170430   5.810315   4.475504   3.240134
    16  H    2.125609   2.628319   1.095259   2.176919   2.846748
    17  O    2.389276   2.954939   1.422231   2.398391   2.977221
    18  H    2.611011   3.308585   1.952775   2.519665   3.192564
    19  H    2.795167   3.911444   2.126971   1.097690   2.144172
    20  O    2.975848   4.179192   2.433265   1.424584   2.427893
    21  H    3.706970   4.934895   3.235684   1.956522   2.709300
    22  H    4.327669   5.216809   2.922327   2.183374   1.095714
    23  O    4.441168   5.347409   3.018717   2.430758   1.427340
    24  H    4.051081   4.791032   2.619639   2.576197   1.958670
                   11         12         13         14         15
    11  C    0.000000
    12  H    1.095053   0.000000
    13  H    1.093389   1.787087   0.000000
    14  O    1.424023   2.043595   2.041567   0.000000
    15  H    1.945367   2.264078   2.261267   0.972351   0.000000
    16  H    4.257060   4.467625   4.811749   5.158978   6.012826
    17  O    4.380229   4.990848   4.569065   5.223934   6.087337
    18  H    4.390553   5.070392   4.340878   5.299443   6.086725
    19  H    2.755689   2.592909   3.135671   4.060219   4.637303
    20  O    2.891912   3.285233   2.588524   4.194641   4.721288
    21  H    2.647400   2.845275   2.174908   4.008815   4.355324
    22  H    2.053461   2.355283   3.002472   2.559254   3.424580
    23  O    2.398323   3.357459   2.693090   2.760669   3.644504
    24  H    3.244029   4.097755   3.586779   3.639547   4.560442
                   16         17         18         19         20
    16  H    0.000000
    17  O    2.032875   0.000000
    18  H    2.837054   0.972741   0.000000
    19  H    2.477755   3.322180   3.513091   0.000000
    20  O    3.379005   2.875907   2.471809   2.029280   0.000000
    21  H    4.073101   3.816383   3.434465   2.150373   0.971931
    22  H    2.741483   3.454630   3.916740   2.436923   3.368833
    23  O    3.369256   2.674662   2.763052   3.356284   2.898714
    24  H    2.874776   1.986231   2.292351   3.559423   3.197729
                   21         22         23         24
    21  H    0.000000
    22  H    3.610911   0.000000
    23  O    3.393640   2.124031   0.000000
    24  H    3.888356   2.414209   0.972423   0.000000
 Stoichiometry    C6H12O6
 Framework group  C1[X(C6H12O6)]
 Deg. of freedom    66
 Full point group                 C1      NOp   1
 Largest Abelian subgroup         C1      NOp   1
 Largest concise Abelian subgroup C1      NOp   1
                         Standard orientation:                         
 ---------------------------------------------------------------------
 Center     Atomic      Atomic             Coordinates (Angstroms)
 Number     Number       Type             X           Y           Z
 ---------------------------------------------------------------------
      1          6           0       -2.360861   -1.029188    0.067544
      2          8           0       -3.747943   -1.298884    0.103503
      3          1           0       -3.858310   -2.228782    0.365873
      4          1           0       -1.895066   -1.697327   -0.661311
      5          1           0       -1.947531   -1.204805    1.063165
      6          6           0       -2.112517    0.411378   -0.336619
      7          8           0       -3.043678    1.169172   -0.613032
      8          6           0       -0.657363    0.868963   -0.419121
      9          6           0        0.393989   -0.242413   -0.279434
     10          6           0        1.860445    0.214820   -0.391138
     11          6           0        2.833355   -0.957654   -0.262767
     12          1           0        2.696517   -1.675182   -1.078591
     13          1           0        2.727784   -1.471483    0.696573
     14          8           0        4.165249   -0.460041   -0.342020
     15          1           0        4.760255   -1.225066   -0.263464
     16          1           0       -0.537747    1.392751   -1.373547
     17          8           0       -0.434961    1.824870    0.610209
     18          1           0       -0.474045    1.357784    1.462576
     19          1           0        0.205925   -0.954141   -1.093682
     20          8           0        0.201415   -0.960808    0.935582
     21          1           0        0.589114   -1.845240    0.825488
     22          1           0        2.078555    0.574322   -1.402956
     23          8           0        2.155456    1.159424    0.637448
     24          1           0        1.547959    1.911869    0.535559
 ---------------------------------------------------------------------
 Rotational constants (GHZ):      1.9520803      0.4534180      0.3988865
 Standard basis: 6-31G(d) (6D, 7F)
 There are   204 symmetry adapted basis functions of A   symmetry.
 Integral buffers will be    131072 words long.
 Raffenetti 2 integral format.
 Two-electron integral symmetry is turned on.
   204 basis functions,   384 primitive gaussians,   204 cartesian basis functions
    48 alpha electrons       48 beta electrons
       nuclear repulsion energy       788.0720699455 Hartrees.
 NAtoms=   24 NActive=   24 NUniq=   24 SFac= 1.00D+00 NAtFMM=   50 NAOKFM=F Big=F
 One-electron integrals computed using PRISM.
 NBasis=   204 RedAO= T  NBF=   204
 NBsUse=   204 1.00D-06 NBFU=   204
 Harris functional with IExCor=  402 diagonalized for initial guess.
 ExpMin= 1.61D-01 ExpMax= 5.48D+03 ExpMxC= 8.25D+02 IAcc=1 IRadAn=         1 AccDes= 0.00D+00
 HarFok:  IExCor=  402 AccDes= 0.00D+00 IRadAn=         1 IDoV= 1
 ScaDFX=  1.000000  1.000000  1.000000  1.000000
 FoFCou: FMM=F IPFlag=           0 FMFlag=      100000 FMFlg1=           0
         NFxFlg=           0 DoJE=T BraDBF=F KetDBF=T FulRan=T
         Omega=  0.000000  0.000000  1.000000  0.000000  0.000000 ICntrl=     500 IOpCl=  0
         NMat0=    1 NMatS0=    1 NMatT0=    0 NMatD0=    1 NMtDS0=    0 NMtDT0=    0
         I1Cent=           4 NGrid=           0.
 Petite list used in FoFCou.
 Initial guess orbital symmetries:
       Occupied  (A) (A) (A) (A) (A) (A) (A) (A) (A) (A) (A) (A)
                 (A) (A) (A) (A) (A) (A) (A) (A) (A) (A) (A) (A)
                 (A) (A) (A) (A) (A) (A) (A) (A) (A) (A) (A) (A)
                 (A) (A) (A) (A) (A) (A) (A) (A) (A) (A) (A) (A)
       Virtual   (A) (A) (A) (A) (A) (A) (A) (A) (A) (A) (A) (A)
                 (A) (A) (A) (A) (A) (A) (A) (A) (A) (A) (A) (A)
                 (A) (A) (A) (A) (A) (A) (A) (A) (A) (A) (A) (A)
                 (A) (A) (A) (A) (A) (A) (A) (A) (A) (A) (A) (A)
                 (A) (A) (A) (A) (A) (A) (A) (A) (A) (A) (A) (A)
                 (A) (A) (A) (A) (A) (A) (A) (A) (A) (A) (A) (A)
                 (A) (A) (A) (A) (A) (A) (A) (A) (A) (A) (A) (A)
                 (A) (A) (A) (A) (A) (A) (A) (A) (A) (A) (A) (A)
                 (A) (A) (A) (A) (A) (A) (A) (A) (A) (A) (A) (A)
                 (A) (A) (A) (A) (A) (A) (A) (A) (A) (A) (A) (A)
                 (A) (A) (A) (A) (A) (A) (A) (A) (A) (A) (A) (A)
                 (A) (A) (A) (A) (A) (A) (A) (A) (A) (A) (A) (A)
                 (A) (A) (A) (A) (A) (A) (A) (A) (A) (A) (A) (A)
 The electronic state of the initial guess is 1-A.
 Requested convergence on RMS density matrix=1.00D-08 within 128 cycles.
 Requested convergence on MAX density matrix=1.00D-06.
 Requested convergence on             energy=1.00D-06.
 No special actions if energy rises.
 Keep R1 ints in memory in canonical form, NReq=223280949.
 Integral accuracy reduced to 1.0D-05 until final iterations.
 Initial convergence to 1.0D-05 achieved.  Increase integral accuracy.
 SCF Done:  E(RB3LYP) =  -687.095414536     A.U. after   14 cycles
             Convg  =    0.6712D-08             -V/T =  2.0085

 **********************************************************************

            Population analysis using the SCF density.

 **********************************************************************

 Orbital symmetries:
       Occupied  (A) (A) (A) (A) (A) (A) (A) (A) (A) (A) (A) (A)
                 (A) (A) (A) (A) (A) (A) (A) (A) (A) (A) (A) (A)
                 (A) (A) (A) (A) (A) (A) (A) (A) (A) (A) (A) (A)
                 (A) (A) (A) (A) (A) (A) (A) (A) (A) (A) (A) (A)
       Virtual   (A) (A) (A) (A) (A) (A) (A) (A) (A) (A) (A) (A)
                 (A) (A) (A) (A) (A) (A) (A) (A) (A) (A) (A) (A)
                 (A) (A) (A) (A) (A) (A) (A) (A) (A) (A) (A) (A)
                 (A) (A) (A) (A) (A) (A) (A) (A) (A) (A) (A) (A)
                 (A) (A) (A) (A) (A) (A) (A) (A) (A) (A) (A) (A)
                 (A) (A) (A) (A) (A) (A) (A) (A) (A) (A) (A) (A)
                 (A) (A) (A) (A) (A) (A) (A) (A) (A) (A) (A) (A)
                 (A) (A) (A) (A) (A) (A) (A) (A) (A) (A) (A) (A)
                 (A) (A) (A) (A) (A) (A) (A) (A) (A) (A) (A) (A)
                 (A) (A) (A) (A) (A) (A) (A) (A) (A) (A) (A) (A)
                 (A) (A) (A) (A) (A) (A) (A) (A) (A) (A) (A) (A)
                 (A) (A) (A) (A) (A) (A) (A) (A) (A) (A) (A) (A)
                 (A) (A) (A) (A) (A) (A) (A) (A) (A) (A) (A) (A)
 The electronic state is 1-A.
 Alpha  occ. eigenvalues --  -19.17719 -19.17434 -19.14922 -19.14665 -19.14620
 Alpha  occ. eigenvalues --  -19.13342 -10.28330 -10.26513 -10.26270 -10.24722
 Alpha  occ. eigenvalues --  -10.24320 -10.24320  -1.06914  -1.04732  -1.03620
 Alpha  occ. eigenvalues --   -1.02453  -1.01467  -1.00140  -0.79581  -0.75794
 Alpha  occ. eigenvalues --   -0.71636  -0.66276  -0.60133  -0.57337  -0.55642
 Alpha  occ. eigenvalues --   -0.53263  -0.52043  -0.50998  -0.49732  -0.48119
 Alpha  occ. eigenvalues --   -0.47552  -0.46225  -0.44869  -0.42980  -0.42453
 Alpha  occ. eigenvalues --   -0.41283  -0.38133  -0.36951  -0.35917  -0.35207
 Alpha  occ. eigenvalues --   -0.34184  -0.32960  -0.30786  -0.29828  -0.27344
 Alpha  occ. eigenvalues --   -0.27210  -0.26125  -0.24520
 Alpha virt. eigenvalues --   -0.03903   0.02935   0.05859   0.06273   0.08386
 Alpha virt. eigenvalues --    0.09197   0.11283   0.13066   0.13959   0.15514
 Alpha virt. eigenvalues --    0.16206   0.16627   0.16954   0.17714   0.19733
 Alpha virt. eigenvalues --    0.20395   0.22183   0.22565   0.23851   0.27249
 Alpha virt. eigenvalues --    0.28503   0.30214   0.33460   0.36825   0.51495
 Alpha virt. eigenvalues --    0.53525   0.54389   0.54422   0.55444   0.57774
 Alpha virt. eigenvalues --    0.58240   0.59619   0.62753   0.64509   0.65923
 Alpha virt. eigenvalues --    0.66558   0.68326   0.68783   0.70868   0.72146
 Alpha virt. eigenvalues --    0.76882   0.78275   0.79541   0.80419   0.81026
 Alpha virt. eigenvalues --    0.81985   0.82928   0.84488   0.85728   0.86008
 Alpha virt. eigenvalues --    0.87161   0.89676   0.90782   0.91559   0.93928
 Alpha virt. eigenvalues --    0.94108   0.95931   0.97019   0.98531   0.99085
 Alpha virt. eigenvalues --    0.99898   1.02383   1.03689   1.05580   1.06647
 Alpha virt. eigenvalues --    1.07682   1.11412   1.12681   1.16629   1.17463
 Alpha virt. eigenvalues --    1.20429   1.22443   1.25741   1.26945   1.32733
 Alpha virt. eigenvalues --    1.32945   1.34182   1.36325   1.41568   1.44636
 Alpha virt. eigenvalues --    1.49937   1.52528   1.53927   1.55295   1.59219
 Alpha virt. eigenvalues --    1.61652   1.62575   1.66480   1.67369   1.69186
 Alpha virt. eigenvalues --    1.71919   1.72685   1.73617   1.74170   1.75020
 Alpha virt. eigenvalues --    1.77914   1.79129   1.80667   1.84280   1.85121
 Alpha virt. eigenvalues --    1.86191   1.89429   1.93153   1.94277   1.94649
 Alpha virt. eigenvalues --    1.98688   2.00229   2.04045   2.07189   2.08769
 Alpha virt. eigenvalues --    2.10927   2.12156   2.14773   2.15492   2.18461
 Alpha virt. eigenvalues --    2.20324   2.24157   2.28464   2.29563   2.33381
 Alpha virt. eigenvalues --    2.34808   2.35797   2.37732   2.40354   2.41781
 Alpha virt. eigenvalues --    2.42931   2.45939   2.49481   2.51532   2.56514
 Alpha virt. eigenvalues --    2.58532   2.60879   2.63953   2.64961   2.70329
 Alpha virt. eigenvalues --    2.71764   2.79690   2.84458   2.89029   2.91507
 Alpha virt. eigenvalues --    2.94747   2.96471   3.01232   3.04045   3.75662
 Alpha virt. eigenvalues --    3.76729   3.78669   3.85607   3.86623   4.10146
 Alpha virt. eigenvalues --    4.15363   4.27735   4.40901   4.45220   4.57151
 Alpha virt. eigenvalues --    4.72613
          Condensed to atoms (all electrons):
              1          2          3          4          5          6
     1  C    5.155136   0.217685  -0.022495   0.346648   0.358214   0.264354
     2  O    0.217685   8.260788   0.232958  -0.039404  -0.037471  -0.031541
     3  H   -0.022495   0.232958   0.399202  -0.004545  -0.003878   0.006484
     4  H    0.346648  -0.039404  -0.004545   0.627407  -0.040947  -0.032195
     5  H    0.358214  -0.037471  -0.003878  -0.040947   0.559890  -0.032925
     6  C    0.264354  -0.031541   0.006484  -0.032195  -0.032925   4.651135
     7  O   -0.083295   0.002927   0.000218   0.000334   0.000591   0.563472
     8  C   -0.128448   0.001950  -0.000223   0.001889   0.009285   0.276196
     9  C    0.002273   0.000038   0.000001   0.001251  -0.007147  -0.016180
    10  C    0.000276   0.000000   0.000000   0.000310   0.000078   0.001287
    11  C    0.000010   0.000000   0.000000  -0.000011  -0.000007  -0.000064
    12  H   -0.000002   0.000000   0.000000  -0.000008   0.000000   0.000008
    13  H   -0.000002   0.000000   0.000000   0.000000   0.000001   0.000003
    14  O    0.000000   0.000000   0.000000   0.000000   0.000000   0.000000
    15  H    0.000000   0.000000   0.000000   0.000000   0.000000   0.000000
    16  H    0.007110  -0.000043   0.000005  -0.000574   0.000105  -0.031921
    17  O    0.001778  -0.000007   0.000001   0.000138  -0.000184  -0.030279
    18  H    0.001389  -0.000022   0.000001  -0.000010   0.000721  -0.003706
    19  H   -0.003243  -0.000057  -0.000002   0.004807   0.000359   0.000457
    20  O   -0.010858   0.000325   0.000005  -0.001093   0.012959  -0.004044
    21  H    0.001473  -0.000021  -0.000008   0.000176  -0.000390  -0.000072
    22  H   -0.000007   0.000000   0.000000  -0.000003  -0.000006   0.000019
    23  O   -0.000005   0.000000   0.000000  -0.000001  -0.000002   0.000093
    24  H   -0.000031   0.000000   0.000000   0.000000  -0.000002   0.000505
              7          8          9         10         11         12
     1  C   -0.083295  -0.128448   0.002273   0.000276   0.000010  -0.000002
     2  O    0.002927   0.001950   0.000038   0.000000   0.000000   0.000000
     3  H    0.000218  -0.000223   0.000001   0.000000   0.000000   0.000000
     4  H    0.000334   0.001889   0.001251   0.000310  -0.000011  -0.000008
     5  H    0.000591   0.009285  -0.007147   0.000078  -0.000007   0.000000
     6  C    0.563472   0.276196  -0.016180   0.001287  -0.000064   0.000008
     7  O    7.991493  -0.059919   0.003056  -0.000047   0.000000   0.000000
     8  C   -0.059919   5.135505   0.268609  -0.020530   0.002943  -0.000062
     9  C    0.003056   0.268609   5.149373   0.266376  -0.025375   0.002172
    10  C   -0.000047  -0.020530   0.266376   4.905306   0.345764  -0.039937
    11  C    0.000000   0.002943  -0.025375   0.345764   4.914890   0.347654
    12  H    0.000000  -0.000062   0.002172  -0.039937   0.347654   0.675245
    13  H    0.000000  -0.000193  -0.010865  -0.029730   0.338542  -0.055486
    14  O    0.000000  -0.000020   0.002308  -0.046706   0.249397  -0.041144
    15  H    0.000000   0.000003  -0.000229   0.006533  -0.022234  -0.005164
    16  H    0.000130   0.361704  -0.046973  -0.001570  -0.000002  -0.000012
    17  O   -0.001781   0.225280  -0.038262  -0.008630   0.000017   0.000005
    18  H    0.000147  -0.031989  -0.011504  -0.001238  -0.000009   0.000000
    19  H    0.000061  -0.051070   0.326982  -0.045869  -0.003451   0.005262
    20  O   -0.000028  -0.037292   0.192646  -0.048784  -0.006979  -0.000013
    21  H    0.000003   0.005445  -0.019292  -0.003277   0.004461  -0.000464
    22  H    0.000000  -0.005845  -0.053043   0.341088  -0.057893  -0.005137
    23  O    0.000000  -0.006668  -0.045394   0.255212  -0.048443   0.003654
    24  H    0.000000  -0.000581  -0.004474  -0.020995   0.005702  -0.000204
             13         14         15         16         17         18
     1  C   -0.000002   0.000000   0.000000   0.007110   0.001778   0.001389
     2  O    0.000000   0.000000   0.000000  -0.000043  -0.000007  -0.000022
     3  H    0.000000   0.000000   0.000000   0.000005   0.000001   0.000001
     4  H    0.000000   0.000000   0.000000  -0.000574   0.000138  -0.000010
     5  H    0.000001   0.000000   0.000000   0.000105  -0.000184   0.000721
     6  C    0.000003   0.000000   0.000000  -0.031921  -0.030279  -0.003706
     7  O    0.000000   0.000000   0.000000   0.000130  -0.001781   0.000147
     8  C   -0.000193  -0.000020   0.000003   0.361704   0.225280  -0.031989
     9  C   -0.010865   0.002308  -0.000229  -0.046973  -0.038262  -0.011504
    10  C   -0.029730  -0.046706   0.006533  -0.001570  -0.008630  -0.001238
    11  C    0.338542   0.249397  -0.022234  -0.000002   0.000017  -0.000009
    12  H   -0.055486  -0.041144  -0.005164  -0.000012   0.000005   0.000000
    13  H    0.656491  -0.038713  -0.004097   0.000004  -0.000003   0.000026
    14  O   -0.038713   8.245464   0.232773   0.000000   0.000000   0.000000
    15  H   -0.004097   0.232773   0.400783   0.000000   0.000000   0.000000
    16  H    0.000004   0.000000   0.000000   0.558040  -0.034647   0.006854
    17  O   -0.000003   0.000000   0.000000  -0.034647   8.238563   0.237737
    18  H    0.000026   0.000000   0.000000   0.006854   0.237737   0.370009
    19  H    0.000710  -0.000040  -0.000005   0.000438   0.004608   0.000697
    20  O    0.009809   0.000074   0.000010   0.002573  -0.002477   0.011670
    21  H    0.005164  -0.000095  -0.000006  -0.000190   0.000001  -0.000365
    22  H    0.009345   0.003898  -0.000289   0.002025   0.000044   0.000171
    23  O   -0.001108   0.003633  -0.000024   0.000302  -0.015054   0.005682
    24  H   -0.000223  -0.000011   0.000015  -0.001637   0.040575  -0.004387
             19         20         21         22         23         24
     1  C   -0.003243  -0.010858   0.001473  -0.000007  -0.000005  -0.000031
     2  O   -0.000057   0.000325  -0.000021   0.000000   0.000000   0.000000
     3  H   -0.000002   0.000005  -0.000008   0.000000   0.000000   0.000000
     4  H    0.004807  -0.001093   0.000176  -0.000003  -0.000001   0.000000
     5  H    0.000359   0.012959  -0.000390  -0.000006  -0.000002  -0.000002
     6  C    0.000457  -0.004044  -0.000072   0.000019   0.000093   0.000505
     7  O    0.000061  -0.000028   0.000003   0.000000   0.000000   0.000000
     8  C   -0.051070  -0.037292   0.005445  -0.005845  -0.006668  -0.000581
     9  C    0.326982   0.192646  -0.019292  -0.053043  -0.045394  -0.004474
    10  C   -0.045869  -0.048784  -0.003277   0.341088   0.255212  -0.020995
    11  C   -0.003451  -0.006979   0.004461  -0.057893  -0.048443   0.005702
    12  H    0.005262  -0.000013  -0.000464  -0.005137   0.003654  -0.000204
    13  H    0.000710   0.009809   0.005164   0.009345  -0.001108  -0.000223
    14  O   -0.000040   0.000074  -0.000095   0.003898   0.003633  -0.000011
    15  H   -0.000005   0.000010  -0.000006  -0.000289  -0.000024   0.000015
    16  H    0.000438   0.002573  -0.000190   0.002025   0.000302  -0.001637
    17  O    0.004608  -0.002477   0.000001   0.000044  -0.015054   0.040575
    18  H    0.000697   0.011670  -0.000365   0.000171   0.005682  -0.004387
    19  H    0.691197  -0.042412  -0.010430   0.004393   0.004226  -0.000127
    20  O   -0.042412   8.318061   0.234926   0.003661   0.000226  -0.000162
    21  H   -0.010430   0.234926   0.374225   0.000118   0.000214  -0.000066
    22  H    0.004393   0.003661   0.000118   0.670698  -0.034891  -0.005214
    23  O    0.004226   0.000226   0.000214  -0.034891   8.289252   0.223396
    24  H   -0.000127  -0.000162  -0.000066  -0.005214   0.223396   0.354917
 Mulliken atomic charges:
              1
     1  C   -0.107961
     2  O   -0.608104
     3  H    0.392274
     4  H    0.135830
     5  H    0.180758
     6  C    0.418914
     7  O   -0.417362
     8  C    0.054030
     9  C    0.063653
    10  C    0.145082
    11  C   -0.044911
    12  H    0.113631
    13  H    0.120326
    14  O   -0.610817
    15  H    0.391931
    16  H    0.178279
    17  O   -0.617423
    18  H    0.418126
    19  H    0.112506
    20  O   -0.632804
    21  H    0.408472
    22  H    0.126866
    23  O   -0.634301
    24  H    0.413005
 Sum of Mulliken atomic charges =   0.00000
 Mulliken charges with hydrogens summed into heavy atoms:
              1
     1  C    0.208627
     2  O   -0.215830
     6  C    0.418914
     7  O   -0.417362
     8  C    0.232309
     9  C    0.176159
    10  C    0.271948
    11  C    0.189045
    14  O   -0.218886
    17  O   -0.199297
    20  O   -0.224332
    23  O   -0.221296
 Sum of Mulliken charges with hydrogens summed into heavy atoms =   0.00000
 Electronic spatial extent (au):  <R**2>=           2710.5944
 Charge=              0.0000 electrons
 Dipole moment (field-independent basis, Debye):
    X=              2.1723    Y=             -6.0763    Z=             -0.4291  Tot=              6.4672
 Quadrupole moment (field-independent basis, Debye-Ang):
   XX=            -89.1400   YY=            -61.6165   ZZ=            -68.3630
   XY=             -0.6127   XZ=             -5.9851   YZ=             -0.7918
 Traceless Quadrupole moment (field-independent basis, Debye-Ang):
   XX=            -16.1002   YY=             11.4234   ZZ=              4.6769
   XY=             -0.6127   XZ=             -5.9851   YZ=             -0.7918
 Octapole moment (field-independent basis, Debye-Ang**2):
  XXX=             68.3738  YYY=            -30.5381  ZZZ=              8.5046  XYY=              5.0111
  XXY=            -74.6286  XXZ=             13.6983  XZZ=             -5.4275  YZZ=              4.1689
  YYZ=              7.6375  XYZ=             -0.5223
 Hexadecapole moment (field-independent basis, Debye-Ang**3):
 XXXX=          -2588.8549 YYYY=           -489.5328 ZZZZ=           -185.8123 XXXY=            -85.4668
 XXXZ=            -51.9992 YYYX=             65.3738 YYYZ=            -12.6980 ZZZX=             -1.4442
 ZZZY=              5.8893 XXYY=           -388.4194 XXZZ=           -452.3479 YYZZ=           -111.7540
 XXYZ=             -7.5520 YYXZ=            -14.7650 ZZXY=              0.2628
 N-N= 7.880720699455D+02 E-N=-3.187535493655D+03  KE= 6.813269422339D+02
 Calling FoFJK, ICntrl=      2127 FMM=F ISym2X=0 I1Cent= 0 IOpClX= 0 NMat=1 NMatS=1 NMatT=0.
 ***** Axes restored to original set *****
 -------------------------------------------------------------------
 Center     Atomic                   Forces (Hartrees/Bohr)
 Number     Number              X              Y              Z
 -------------------------------------------------------------------
      1        6           0.003896114    0.008529923    0.025897252
      2        8          -0.005017347   -0.003009586    0.008301780
      3        1          -0.003953578    0.000510399   -0.002378585
      4        1           0.003150639   -0.001887104   -0.010403196
      5        1           0.001290509   -0.002526100   -0.007678710
      6        6          -0.016252114   -0.010976130    0.033105942
      7        8           0.022666986    0.002696611   -0.025348441
      8        6           0.007351157    0.012898801   -0.010800358
      9        6           0.013972987   -0.027399741   -0.002136741
     10        6          -0.001835644    0.011190792   -0.004010164
     11        6           0.005045634    0.007281565   -0.015382952
     12        1           0.000029473   -0.002926528    0.010813527
     13        1           0.001512980    0.003337670    0.007461830
     14        8          -0.003356050   -0.002078140   -0.002629208
     15        1          -0.003394300    0.000903401    0.001311703
     16        1           0.000582816    0.001258059   -0.002436918
     17        8          -0.014644953    0.007613556    0.002205561
     18        1           0.000881489   -0.000948577   -0.001313767
     19        1          -0.002424834   -0.007483340   -0.001218285
     20        8          -0.000173824    0.011318276   -0.000314547
     21        1          -0.004475173    0.003276145   -0.000075702
     22        1          -0.013243444    0.000260613    0.002712920
     23        8           0.006056961   -0.010668707   -0.008876216
     24        1           0.002333517   -0.001171859    0.003193274
 -------------------------------------------------------------------
 Cartesian Forces:  Max     0.033105942 RMS     0.009599542

 GradGradGradGradGradGradGradGradGradGradGradGradGradGradGradGradGradGrad
 Berny optimization.
 Internal  Forces:  Max     0.034371018 RMS     0.007705372
 Search for a local minimum.
 Step number   1 out of a maximum of  125
 All quantities printed in internal units (Hartrees-Bohrs-Radians)
 Mixed Optimization -- RFO/linear search
 Second derivative matrix not updated -- first step.
 ITU=  0
     Eigenvalues ---    0.00235   0.00287   0.00383   0.00400   0.00474
     Eigenvalues ---    0.00546   0.01330   0.01367   0.01374   0.01398
     Eigenvalues ---    0.01513   0.03721   0.04406   0.04529   0.04671
     Eigenvalues ---    0.04838   0.05234   0.05249   0.05567   0.06358
     Eigenvalues ---    0.07013   0.07362   0.07684   0.08492   0.11472
     Eigenvalues ---    0.11550   0.13692   0.13970   0.16000   0.16000
     Eigenvalues ---    0.16000   0.16000   0.16000   0.16590   0.17760
     Eigenvalues ---    0.18243   0.19782   0.19825   0.20268   0.22028
     Eigenvalues ---    0.22170   0.24991   0.25000   0.28507   0.28855
     Eigenvalues ---    0.29519   0.29643   0.30691   0.33939   0.34161
     Eigenvalues ---    0.34212   0.34235   0.34424   0.34470   0.34557
     Eigenvalues ---    0.41374   0.41777   0.41860   0.42126   0.43452
     Eigenvalues ---    0.52821   0.52872   0.52885   0.52900   0.52984
     Eigenvalues ---    0.90276
 RFO step:  Lambda=-3.22261357D-02 EMin= 2.34972033D-03
 Linear search not attempted -- first point.
 Maximum step size (   0.300) exceeded in Quadratic search.
    -- Step size scaled by   0.951
 Iteration  1 RMS(Cart)=  0.22021137 RMS(Int)=  0.01097660
 Iteration  2 RMS(Cart)=  0.02282097 RMS(Int)=  0.00115117
 Iteration  3 RMS(Cart)=  0.00031957 RMS(Int)=  0.00114435
 Iteration  4 RMS(Cart)=  0.00000021 RMS(Int)=  0.00114435
 Variable       Old X    -DE/DX   Delta X   Delta X   Delta X     New X
                                 (Linear)    (Quad)   (Total)
    R1        2.67116   0.00592   0.00000   0.01207   0.01207   2.68323
    R2        2.06543   0.00636   0.00000   0.01604   0.01604   2.08148
    R3        2.06400   0.00098   0.00000   0.00245   0.00245   2.06645
    R4        2.86607   0.00420   0.00000   0.01177   0.01177   2.87784
    R5        1.83773  -0.00449   0.00000  -0.00761  -0.00761   1.83013
    R6        2.32806  -0.03355   0.00000  -0.03413  -0.03413   2.29393
    R7        2.88681   0.02204   0.00000   0.06380   0.06380   2.95061
    R8        2.90306   0.00675   0.00000   0.02001   0.02001   2.92307
    R9        2.06974  -0.00075   0.00000  -0.00190  -0.00190   2.06784
   R10        2.68763   0.01118   0.00000   0.02344   0.02344   2.71107
   R11        2.91044   0.00609   0.00000   0.01825   0.01825   2.92869
   R12        2.07433   0.00539   0.00000   0.01380   0.01380   2.08813
   R13        2.69207   0.00672   0.00000   0.01420   0.01420   2.70628
   R14        2.88932  -0.00186   0.00000  -0.00540  -0.00540   2.88392
   R15        2.07060   0.00598   0.00000   0.01522   0.01522   2.08582
   R16        2.69728  -0.01175   0.00000  -0.02507  -0.02507   2.67221
   R17        2.06935   0.00510   0.00000   0.01295   0.01295   2.08230
   R18        2.06621   0.00494   0.00000   0.01248   0.01248   2.07869
   R19        2.69101   0.00241   0.00000   0.00508   0.00508   2.69609
   R20        1.83748  -0.00372   0.00000  -0.00630  -0.00630   1.83118
   R21        1.83821  -0.00027   0.00000  -0.00045  -0.00045   1.83776
   R22        1.83668  -0.00523   0.00000  -0.00885  -0.00885   1.82783
   R23        1.83761  -0.00072   0.00000  -0.00122  -0.00122   1.83639
    A1        1.89497   0.00808   0.00000   0.04294   0.04230   1.93728
    A2        1.89387   0.00954   0.00000   0.05843   0.05814   1.95201
    A3        1.92697  -0.01177   0.00000  -0.03866  -0.03837   1.88860
    A4        1.92656  -0.00451   0.00000  -0.03379  -0.03512   1.89144
    A5        1.91043  -0.00143   0.00000  -0.02126  -0.02116   1.88928
    A6        1.91099   0.00012   0.00000  -0.00717  -0.00692   1.90407
    A7        1.87619  -0.00198   0.00000  -0.00982  -0.00982   1.86637
    A8        2.11798  -0.01029   0.00000  -0.03464  -0.03465   2.08333
    A9        2.04303   0.03437   0.00000   0.11590   0.11589   2.15892
   A10        2.12188  -0.02407   0.00000  -0.08107  -0.08108   2.04080
   A11        2.01561   0.02049   0.00000   0.10655   0.10427   2.11988
   A12        1.86956  -0.00723   0.00000  -0.06089  -0.05894   1.81062
   A13        1.88725  -0.00891   0.00000  -0.00398  -0.01163   1.87561
   A14        1.92887  -0.00997   0.00000  -0.06737  -0.06423   1.86464
   A15        1.88958   0.00445   0.00000   0.05165   0.04724   1.93682
   A16        1.86730  -0.00023   0.00000  -0.03550  -0.03532   1.83197
   A17        2.01558  -0.00661   0.00000  -0.04538  -0.04605   1.96952
   A18        1.85915   0.00238   0.00000   0.00727   0.00680   1.86595
   A19        1.92822  -0.00303   0.00000  -0.02271  -0.02311   1.90511
   A20        1.87740  -0.00154   0.00000  -0.01310  -0.01383   1.86357
   A21        1.91801   0.00464   0.00000   0.01160   0.01023   1.92824
   A22        1.85723   0.00510   0.00000   0.07297   0.07308   1.93030
   A23        1.95210  -0.00340   0.00000  -0.00816  -0.00800   1.94410
   A24        1.93255  -0.00649   0.00000  -0.04219  -0.04196   1.89059
   A25        1.91878   0.01113   0.00000   0.05038   0.05052   1.96930
   A26        1.77467   0.00888   0.00000   0.05683   0.05686   1.83153
   A27        1.89175  -0.00725   0.00000  -0.02960  -0.02952   1.86222
   A28        1.99016  -0.00365   0.00000  -0.02901  -0.02839   1.96177
   A29        1.93950  -0.00558   0.00000  -0.04427  -0.04457   1.89492
   A30        1.95260  -0.00266   0.00000  -0.02325  -0.02349   1.92911
   A31        1.89918  -0.00696   0.00000  -0.02150  -0.02123   1.87795
   A32        1.91100   0.00067   0.00000  -0.00384  -0.00618   1.90482
   A33        1.88009   0.00770   0.00000   0.04613   0.04541   1.92550
   A34        1.87901   0.00762   0.00000   0.05255   0.05218   1.93119
   A35        1.86806   0.00072   0.00000   0.00357   0.00357   1.87163
   A36        1.88091  -0.00147   0.00000  -0.00726  -0.00726   1.87365
   A37        1.88426   0.00150   0.00000   0.00741   0.00741   1.89167
   A38        1.88331  -0.00519   0.00000  -0.02568  -0.02568   1.85764
    D1        1.04720   0.00317   0.00000   0.01955   0.02065   1.06785
    D2       -1.04720  -0.00163   0.00000   0.00134   0.00027  -1.04693
    D3        3.14159  -0.00064   0.00000  -0.00303  -0.00305   3.13854
    D4       -0.02957   0.00226   0.00000   0.04442   0.04435   0.01478
    D5        3.13798   0.00209   0.00000   0.03746   0.03725  -3.10795
    D6        2.05550   0.00407   0.00000   0.06017   0.06022   2.11572
    D7       -1.06014   0.00390   0.00000   0.05322   0.05312  -1.00701
    D8       -2.11363  -0.00231   0.00000   0.00073   0.00096  -2.11267
    D9        1.05392  -0.00249   0.00000  -0.00623  -0.00613   1.04779
   D10        0.14852   0.00617   0.00000   0.07459   0.07505   0.22357
   D11        2.30534   0.00163   0.00000   0.01263   0.01166   2.31700
   D12       -1.97080  -0.00667   0.00000  -0.06131  -0.06102  -2.03182
   D13       -2.96706   0.00578   0.00000   0.06687   0.06747  -2.89959
   D14       -0.81024   0.00124   0.00000   0.00491   0.00408  -0.80615
   D15        1.19681  -0.00706   0.00000  -0.06903  -0.06860   1.12821
   D16        3.12086  -0.00604   0.00000  -0.11941  -0.12202   2.99884
   D17        1.03783  -0.00177   0.00000  -0.08044  -0.08262   0.95520
   D18       -0.97232  -0.00757   0.00000  -0.15914  -0.16096  -1.13328
   D19        0.99555  -0.00361   0.00000  -0.06343  -0.06371   0.93185
   D20       -1.08748   0.00067   0.00000  -0.02446  -0.02431  -1.11179
   D21       -3.09763  -0.00514   0.00000  -0.10315  -0.10265   3.08291
   D22       -1.04427  -0.00036   0.00000  -0.01323  -0.01156  -1.05582
   D23       -3.12730   0.00392   0.00000   0.02574   0.02783  -3.09946
   D24        1.14574  -0.00189   0.00000  -0.05296  -0.05050   1.09524
   D25        1.20420   0.01272   0.00000   0.10391   0.10264   1.30685
   D26       -0.99131  -0.00968   0.00000  -0.05807  -0.05723  -1.04854
   D27       -3.07045  -0.00016   0.00000   0.01336   0.01379  -3.05666
   D28       -3.12566  -0.00245   0.00000   0.01777   0.01757  -3.10809
   D29       -1.15972   0.00260   0.00000   0.05754   0.05735  -1.10237
   D30        1.05505   0.00137   0.00000   0.02630   0.02598   1.08103
   D31       -1.05269  -0.00466   0.00000  -0.01066  -0.01035  -1.06304
   D32        0.91324   0.00039   0.00000   0.02911   0.02944   0.94268
   D33        3.12801  -0.00083   0.00000  -0.00213  -0.00193   3.12608
   D34        0.96229   0.00296   0.00000   0.07465   0.07464   1.03693
   D35        2.92823   0.00802   0.00000   0.11442   0.11443   3.04265
   D36       -1.14019   0.00679   0.00000   0.08318   0.08306  -1.05713
   D37        2.72001   0.00480   0.00000   0.05492   0.05500   2.77501
   D38       -1.31907  -0.00263   0.00000  -0.01295  -0.01368  -1.33275
   D39        0.70866   0.00070   0.00000   0.01748   0.01811   0.72677
   D40        1.09888  -0.00714   0.00000  -0.07472  -0.07452   1.02436
   D41       -1.04308  -0.00206   0.00000  -0.02096  -0.02134  -1.06442
   D42       -3.11698  -0.00537   0.00000  -0.05796  -0.05787   3.10833
   D43       -0.96377  -0.00306   0.00000  -0.05396  -0.05385  -1.01761
   D44       -3.10572   0.00203   0.00000  -0.00019  -0.00066  -3.10639
   D45        1.10356  -0.00129   0.00000  -0.03720  -0.03720   1.06636
   D46       -3.06614  -0.00025   0.00000  -0.03682  -0.03643  -3.10258
   D47        1.07509   0.00483   0.00000   0.01695   0.01675   1.09183
   D48       -0.99882   0.00152   0.00000  -0.02006  -0.01979  -1.01861
   D49       -1.02760   0.00191   0.00000   0.04897   0.04884  -0.97875
   D50        3.11702   0.00379   0.00000   0.04653   0.04687  -3.11929
   D51        1.15447  -0.00059   0.00000   0.01118   0.01096   1.16544
   D52       -3.13543   0.00098   0.00000   0.00612   0.00626  -3.12917
   D53       -1.03109  -0.00521   0.00000  -0.03242  -0.03372  -1.06480
   D54        1.02827   0.00371   0.00000   0.01545   0.01661   1.04488
         Item               Value     Threshold  Converged?
 Maximum Force            0.034371     0.000450     NO 
 RMS     Force            0.007705     0.000300     NO 
 Maximum Displacement     0.823239     0.001800     NO 
 RMS     Displacement     0.230505     0.001200     NO 
 Predicted change in Energy=-2.026247D-02
 GradGradGradGradGradGradGradGradGradGradGradGradGradGradGradGradGradGrad

                          Input orientation:                          
 ---------------------------------------------------------------------
 Center     Atomic      Atomic             Coordinates (Angstroms)
 Number     Number       Type             X           Y           Z
 ---------------------------------------------------------------------
      1          6           0       -0.019746   -0.006665    0.281995
      2          8           0       -0.329636   -0.136593    1.661565
      3          1           0        0.511477   -0.129152    2.141555
      4          1           0        0.599077   -0.849378   -0.064599
      5          1           0        0.515231    0.923429    0.071025
      6          6           0       -1.325132   -0.019434   -0.502221
      7          8           0       -2.377600   -0.113679    0.095244
      8          6           0       -1.400743    0.058472   -2.059837
      9          6           0       -0.143847   -0.137373   -2.939903
     10          6           0       -0.474873   -0.220999   -4.451621
     11          6           0        0.781494   -0.461078   -5.284027
     12          1           0        1.251066   -1.399580   -4.948008
     13          1           0        1.494771    0.366039   -5.153260
     14          8           0        0.380548   -0.568623   -6.649009
     15          1           0        1.180290   -0.732218   -7.171159
     16          1           0       -2.101510   -0.738614   -2.326242
     17          8           0       -2.079341    1.276510   -2.397581
     18          1           0       -1.455676    2.007348   -2.246990
     19          1           0        0.298972   -1.109180   -2.656163
     20          8           0        0.777703    0.929259   -2.687019
     21          1           0        1.659366    0.642456   -2.962662
     22          1           0       -1.102828   -1.112882   -4.620511
     23          8           0       -1.072005    0.960475   -4.948765
     24          1           0       -1.859888    1.120972   -4.403029
 ---------------------------------------------------------------------
                    Distance matrix (angstroms):
                    1          2          3          4          5
     1  C    0.000000
     2  O    1.419904   0.000000
     3  H    1.937825   0.968461   0.000000
     4  H    1.101469   2.085717   2.322395   0.000000
     5  H    1.093518   2.089800   2.322722   1.779963   0.000000
     6  C    1.522889   2.384682   3.220982   2.140771   2.145818
     7  O    2.367659   2.578380   3.540395   3.070409   3.073215
     8  C    2.719481   3.877391   4.619901   2.967229   2.993273
     9  C    3.226935   4.605217   5.123547   3.053892   3.259658
    10  C    4.760274   6.115494   6.667181   4.560065   4.769103
    11  C    5.641727   7.041389   7.437900   5.237030   5.537539
    12  H    5.559507   6.912324   7.240365   4.957368   5.579294
    13  H    5.654615   7.072690   7.377426   5.307916   5.344468
    14  O    6.965260   8.352045   8.802516   6.594014   6.884999
    15  H    7.583932   8.980627   9.356155   7.131250   7.458733
    16  H    3.416489   4.405062   5.211560   3.524268   3.918751
    17  O    3.615052   4.640581   5.412207   4.139580   3.598678
    18  H    3.537500   4.597962   5.262476   4.140739   3.229945
    19  H    3.154346   4.470330   4.901399   2.621786   3.408199
    20  O    3.213553   4.612204   4.950378   3.173727   2.770511
    21  H    3.710603   5.093773   5.288294   3.427615   3.254420
    22  H    5.141143   6.404331   7.021342   4.870549   5.364251
    23  O    5.422496   6.741745   7.346247   5.470206   5.264882
    24  H    5.158211   6.379846   7.072324   5.361973   5.069257
                    6          7          8          9         10
     6  C    0.000000
     7  O    1.213893   0.000000
     8  C    1.561395   2.372396   0.000000
     9  C    2.711389   3.768598   1.546822   0.000000
    10  C    4.044914   4.930099   2.579917   1.549795   0.000000
    11  C    5.243909   6.247969   3.927784   2.540858   1.526104
    12  H    5.320397   6.344695   4.183245   2.751625   2.148097
    13  H    5.452761   6.540045   4.248278   2.799544   2.171729
    14  O    6.402651   7.300637   4.962533   3.770734   2.383505
    15  H    7.159604   8.114295   5.780357   4.473333   3.224406
    16  H    2.108799   2.516021   1.094254   2.137876   2.726006
    17  O    2.416752   2.869801   1.434637   2.457501   3.005983
    18  H    2.677518   3.291620   1.958613   2.607844   3.284495
    19  H    2.909420   3.965514   2.146636   1.104991   2.147410
    20  O    3.177306   4.334126   2.428427   1.432100   2.450686
    21  H    3.924168   5.120511   3.243516   1.964747   2.741812
    22  H    4.266774   4.986161   2.831585   2.166958   1.103769
    23  O    4.560268   5.319813   3.044270   2.470278   1.414072
    24  H    4.099120   4.693277   2.613478   2.582434   1.929122
                   11         12         13         14         15
    11  C    0.000000
    12  H    1.101904   0.000000
    13  H    1.099994   1.794138   0.000000
    14  O    1.426709   2.083673   2.086228   0.000000
    15  H    1.947774   2.322236   2.318832   0.969016   0.000000
    16  H    4.139713   4.307006   4.705903   4.987566   5.851792
    17  O    4.419860   4.975716   4.604021   5.246923   6.119414
    18  H    4.507955   5.121437   4.454823   5.420804   6.221012
    19  H    2.749278   2.498674   3.137148   4.030095   4.615626
    20  O    2.945760   3.280189   2.629401   4.254262   4.798968
    21  H    2.716097   2.877190   2.214096   4.085492   4.453166
    22  H    2.101373   2.393798   3.036206   2.571269   3.444319
    23  O    2.359803   3.311574   2.642634   2.709037   3.588465
    24  H    3.202489   4.040819   3.519447   3.594260   4.509938
                   16         17         18         19         20
    16  H    0.000000
    17  O    2.016508   0.000000
    18  H    2.822001   0.972502   0.000000
    19  H    2.451220   3.378572   3.599855   0.000000
    20  O    3.346913   2.892587   2.518707   2.094127   0.000000
    21  H    4.056670   3.833963   3.475429   2.238937   0.967246
    22  H    2.530042   3.406492   3.936235   2.413238   3.383065
    23  O    3.290047   2.761004   2.922796   3.379211   2.921967
    24  H    2.798121   2.023406   2.365915   3.561712   3.152512
                   21         22         23         24
    21  H    0.000000
    22  H    3.668704   0.000000
    23  O    3.392069   2.099407   0.000000
    24  H    3.832595   2.368658   0.971775   0.000000
 Stoichiometry    C6H12O6
 Framework group  C1[X(C6H12O6)]
 Deg. of freedom    66
 Full point group                 C1      NOp   1
 Largest Abelian subgroup         C1      NOp   1
 Largest concise Abelian subgroup C1      NOp   1
                         Standard orientation:                         
 ---------------------------------------------------------------------
 Center     Atomic      Atomic             Coordinates (Angstroms)
 Number     Number       Type             X           Y           Z
 ---------------------------------------------------------------------
      1          6           0       -2.681532   -1.018148    0.095276
      2          8           0       -4.090468   -1.001422   -0.080068
      3          1           0       -4.418111   -1.873367    0.185034
      4          1           0       -2.213738   -1.786237   -0.540683
      5          1           0       -2.403169   -1.214694    1.134346
      6          6           0       -2.134326    0.341484   -0.318434
      7          8           0       -2.902121    1.201895   -0.697537
      8          6           0       -0.615391    0.703034   -0.309901
      9          6           0        0.472747   -0.385627   -0.156826
     10          6           0        1.906172    0.161406   -0.375713
     11          6           0        2.948320   -0.947822   -0.263752
     12          1           0        2.720410   -1.720646   -1.015412
     13          1           0        2.923351   -1.400880    0.738297
     14          8           0        4.225741   -0.367165   -0.521688
     15          1           0        4.881773   -1.077708   -0.460505
     16          1           0       -0.455399    1.176371   -1.283423
     17          8           0       -0.428392    1.754232    0.648325
     18          1           0       -0.486101    1.354085    1.532809
     19          1           0        0.292477   -1.133979   -0.949591
     20          8           0        0.357883   -0.985984    1.138275
     21          1           0        0.788193   -1.851852    1.112390
     22          1           0        1.984921    0.521867   -1.415988
     23          8           0        2.265050    1.152688    0.566712
     24          1           0        1.587913    1.847114    0.506678
 ---------------------------------------------------------------------
 Rotational constants (GHZ):      2.0399353      0.4172692      0.3785737
 Standard basis: 6-31G(d) (6D, 7F)
 There are   204 symmetry adapted basis functions of A   symmetry.
 Integral buffers will be    131072 words long.
 Raffenetti 2 integral format.
 Two-electron integral symmetry is turned on.
   204 basis functions,   384 primitive gaussians,   204 cartesian basis functions
    48 alpha electrons       48 beta electrons
       nuclear repulsion energy       776.7106043133 Hartrees.
 NAtoms=   24 NActive=   24 NUniq=   24 SFac= 1.00D+00 NAtFMM=   50 NAOKFM=F Big=F
 One-electron integrals computed using PRISM.
 NBasis=   204 RedAO= T  NBF=   204
 NBsUse=   204 1.00D-06 NBFU=   204
 Initial guess read from the read-write file.
 B after Tr=     0.000000    0.000000    0.000000
         Rot=    1.000000    0.000000    0.000000    0.000000 Ang=   0.00 deg.
 Initial guess orbital symmetries:
       Occupied  (A) (A) (A) (A) (A) (A) (A) (A) (A) (A) (A) (A)
                 (A) (A) (A) (A) (A) (A) (A) (A) (A) (A) (A) (A)
                 (A) (A) (A) (A) (A) (A) (A) (A) (A) (A) (A) (A)
                 (A) (A) (A) (A) (A) (A) (A) (A) (A) (A) (A) (A)
       Virtual   (A) (A) (A) (A) (A) (A) (A) (A) (A) (A) (A) (A)
                 (A) (A) (A) (A) (A) (A) (A) (A) (A) (A) (A) (A)
                 (A) (A) (A) (A) (A) (A) (A) (A) (A) (A) (A) (A)
                 (A) (A) (A) (A) (A) (A) (A) (A) (A) (A) (A) (A)
                 (A) (A) (A) (A) (A) (A) (A) (A) (A) (A) (A) (A)
                 (A) (A) (A) (A) (A) (A) (A) (A) (A) (A) (A) (A)
                 (A) (A) (A) (A) (A) (A) (A) (A) (A) (A) (A) (A)
                 (A) (A) (A) (A) (A) (A) (A) (A) (A) (A) (A) (A)
                 (A) (A) (A) (A) (A) (A) (A) (A) (A) (A) (A) (A)
                 (A) (A) (A) (A) (A) (A) (A) (A) (A) (A) (A) (A)
                 (A) (A) (A) (A) (A) (A) (A) (A) (A) (A) (A) (A)
                 (A) (A) (A) (A) (A) (A) (A) (A) (A) (A) (A) (A)
                 (A) (A) (A) (A) (A) (A) (A) (A) (A) (A) (A) (A)
 Harris functional with IExCor=  402 diagonalized for initial guess.
 ExpMin= 1.61D-01 ExpMax= 5.48D+03 ExpMxC= 8.25D+02 IAcc=1 IRadAn=         1 AccDes= 0.00D+00
 HarFok:  IExCor=  402 AccDes= 0.00D+00 IRadAn=         1 IDoV= 1
 ScaDFX=  1.000000  1.000000  1.000000  1.000000
 FoFCou: FMM=F IPFlag=           0 FMFlag=      100000 FMFlg1=           0
         NFxFlg=           0 DoJE=T BraDBF=F KetDBF=T FulRan=T
         Omega=  0.000000  0.000000  1.000000  0.000000  0.000000 ICntrl=     500 IOpCl=  0
         NMat0=    1 NMatS0=    1 NMatT0=    0 NMatD0=    1 NMtDS0=    0 NMtDT0=    0
         I1Cent=           4 NGrid=           0.
 Petite list used in FoFCou.
 Requested convergence on RMS density matrix=1.00D-08 within 128 cycles.
 Requested convergence on MAX density matrix=1.00D-06.
 Requested convergence on             energy=1.00D-06.
 No special actions if energy rises.
 Keep R1 ints in memory in canonical form, NReq=223281297.
 Integral accuracy reduced to 1.0D-05 until final iterations.
 Initial convergence to 1.0D-05 achieved.  Increase integral accuracy.
 SCF Done:  E(RB3LYP) =  -687.106017788     A.U. after   13 cycles
             Convg  =    0.5065D-08             -V/T =  2.0087
 Calling FoFJK, ICntrl=      2127 FMM=F ISym2X=0 I1Cent= 0 IOpClX= 0 NMat=1 NMatS=1 NMatT=0.
 ***** Axes restored to original set *****
 -------------------------------------------------------------------
 Center     Atomic                   Forces (Hartrees/Bohr)
 Number     Number              X              Y              Z
 -------------------------------------------------------------------
      1        6          -0.002592465   -0.002562615    0.006451938
      2        8           0.000725443    0.000626294   -0.005967152
      3        1           0.000670055    0.000278902    0.000224909
      4        1           0.002551421    0.000963546   -0.003603205
      5        1           0.003894811    0.002703770   -0.004217443
      6        6          -0.006363809   -0.006023614    0.006903290
      7        8           0.002622980    0.001571290   -0.005918934
      8        6           0.002777161    0.005310790   -0.006152617
      9        6           0.003284391   -0.004701698    0.003022691
     10        6           0.000407377    0.003229318   -0.003846035
     11        6          -0.001926099   -0.002168379   -0.007720592
     12        1           0.002043324    0.000195971    0.002282742
     13        1          -0.000709216    0.001026703    0.000964669
     14        8           0.002046550   -0.001455379    0.004812967
     15        1          -0.000117150    0.000351112   -0.000430346
     16        1          -0.001005553    0.000076149   -0.000289278
     17        8          -0.000695245   -0.000603057    0.000804759
     18        1           0.001393184   -0.000305339   -0.001547740
     19        1           0.000547853    0.000686419    0.001140659
     20        8          -0.005027342    0.000153930    0.009790069
     21        1          -0.000020919    0.001033993   -0.001059656
     22        1          -0.004373286    0.001266583    0.001480102
     23        8          -0.000169388   -0.004403462    0.000604993
     24        1           0.000035925    0.002748771    0.002269208
 -------------------------------------------------------------------
 Cartesian Forces:  Max     0.009790069 RMS     0.003249539

 GradGradGradGradGradGradGradGradGradGradGradGradGradGradGradGradGradGrad
 Berny optimization.
 Using GEDIIS/GDIIS optimizer.
 Internal  Forces:  Max     0.018026136 RMS     0.003775289
 Search for a local minimum.
 Step number   2 out of a maximum of  125
 All quantities printed in internal units (Hartrees-Bohrs-Radians)
 Mixed Optimization -- RFO/linear search
 Update second derivatives using D2CorX and points    1    2
 DE= -1.06D-02 DEPred=-2.03D-02 R= 5.23D-01
 SS=  1.41D+00  RLast= 5.02D-01 DXNew= 5.0454D-01 1.5069D+00
 Trust test= 5.23D-01 RLast= 5.02D-01 DXMaxT set to 5.05D-01
 ITU=  1  0
 Use linear search instead of GDIIS.
     Eigenvalues ---    0.00236   0.00310   0.00384   0.00400   0.00475
     Eigenvalues ---    0.00552   0.01324   0.01366   0.01374   0.01395
     Eigenvalues ---    0.01513   0.03981   0.04184   0.04456   0.04816
     Eigenvalues ---    0.04874   0.05308   0.05441   0.05931   0.06547
     Eigenvalues ---    0.06931   0.07216   0.07461   0.09057   0.10856
     Eigenvalues ---    0.11101   0.13591   0.13828   0.15640   0.16000
     Eigenvalues ---    0.16000   0.16000   0.16019   0.16063   0.16991
     Eigenvalues ---    0.19801   0.20001   0.20034   0.21481   0.22023
     Eigenvalues ---    0.22346   0.24656   0.28129   0.28456   0.29152
     Eigenvalues ---    0.29518   0.30666   0.33854   0.33999   0.34152
     Eigenvalues ---    0.34209   0.34261   0.34382   0.34455   0.37263
     Eigenvalues ---    0.41102   0.41758   0.41971   0.42405   0.44663
     Eigenvalues ---    0.52821   0.52852   0.52889   0.52943   0.52995
     Eigenvalues ---    0.88128
 RFO step:  Lambda=-6.33102806D-03 EMin= 2.36381720D-03
 Quartic linear search produced a step of -0.18352.
 Iteration  1 RMS(Cart)=  0.10475659 RMS(Int)=  0.00278656
 Iteration  2 RMS(Cart)=  0.00539306 RMS(Int)=  0.00031038
 Iteration  3 RMS(Cart)=  0.00001240 RMS(Int)=  0.00031031
 Iteration  4 RMS(Cart)=  0.00000000 RMS(Int)=  0.00031031
 Variable       Old X    -DE/DX   Delta X   Delta X   Delta X     New X
                                 (Linear)    (Quad)   (Total)
    R1        2.68323  -0.00596  -0.00222  -0.00631  -0.00853   2.67470
    R2        2.08148   0.00183  -0.00294   0.01015   0.00721   2.08868
    R3        2.06645   0.00502  -0.00045   0.01234   0.01189   2.07834
    R4        2.87784   0.00085  -0.00216   0.00653   0.00437   2.88221
    R5        1.83013   0.00069   0.00140  -0.00183  -0.00043   1.82969
    R6        2.29393  -0.00531   0.00626  -0.01767  -0.01141   2.28252
    R7        2.95061  -0.00592  -0.01171   0.00796  -0.00375   2.94686
    R8        2.92307  -0.01054  -0.00367  -0.02125  -0.02492   2.89815
    R9        2.06784   0.00066   0.00035   0.00080   0.00115   2.06899
   R10        2.71107  -0.00092  -0.00430   0.00706   0.00275   2.71383
   R11        2.92869   0.00014  -0.00335   0.00712   0.00377   2.93246
   R12        2.08813  -0.00009  -0.00253   0.00492   0.00239   2.09052
   R13        2.70628  -0.00083  -0.00261   0.00376   0.00116   2.70743
   R14        2.88392   0.00147   0.00099   0.00192   0.00291   2.88683
   R15        2.08582   0.00124  -0.00279   0.00852   0.00572   2.09154
   R16        2.67221  -0.00233   0.00460  -0.01384  -0.00924   2.66297
   R17        2.08230   0.00140  -0.00238   0.00804   0.00567   2.08796
   R18        2.07869   0.00043  -0.00229   0.00562   0.00333   2.08202
   R19        2.69609  -0.00465  -0.00093  -0.00687  -0.00780   2.68828
   R20        1.83118   0.00008   0.00116  -0.00226  -0.00110   1.83007
   R21        1.83776   0.00043   0.00008   0.00047   0.00056   1.83832
   R22        1.82783  -0.00002   0.00162  -0.00337  -0.00174   1.82609
   R23        1.83639   0.00170   0.00022   0.00208   0.00230   1.83869
    A1        1.93728   0.00177  -0.00776   0.03271   0.02504   1.96231
    A2        1.95201   0.00141  -0.01067   0.03302   0.02241   1.97442
    A3        1.88860   0.00189   0.00704  -0.00321   0.00376   1.89236
    A4        1.89144  -0.00233   0.00645  -0.03734  -0.03104   1.86040
    A5        1.88928  -0.00113   0.00388  -0.01329  -0.00961   1.87966
    A6        1.90407  -0.00173   0.00127  -0.01374  -0.01267   1.89140
    A7        1.86637  -0.00029   0.00180  -0.00493  -0.00313   1.86325
    A8        2.08333   0.01348   0.00636   0.02978   0.03531   2.11863
    A9        2.15892  -0.01803  -0.02127  -0.01342  -0.03547   2.12345
   A10        2.04080   0.00456   0.01488  -0.01517  -0.00105   2.03975
   A11        2.11988  -0.01600  -0.01914  -0.03336  -0.05207   2.06781
   A12        1.81062   0.00420   0.01082   0.00334   0.01389   1.82451
   A13        1.87561   0.00725   0.00213   0.00982   0.01316   1.88877
   A14        1.86464   0.00454   0.01179   0.00444   0.01567   1.88031
   A15        1.93682   0.00379  -0.00867   0.01974   0.01161   1.94843
   A16        1.83197  -0.00244   0.00648  -0.00186   0.00435   1.83633
   A17        1.96952  -0.00247   0.00845  -0.02892  -0.01995   1.94957
   A18        1.86595   0.00238  -0.00125   0.00529   0.00431   1.87026
   A19        1.90511  -0.00822   0.00424  -0.05494  -0.05023   1.85488
   A20        1.86357  -0.00050   0.00254   0.01056   0.01273   1.87630
   A21        1.92824   0.00904  -0.00188   0.04357   0.04095   1.96919
   A22        1.93030  -0.00024  -0.01341   0.02608   0.01175   1.94205
   A23        1.94410  -0.00109   0.00147  -0.00432  -0.00284   1.94125
   A24        1.89059  -0.00165   0.00770  -0.03524  -0.02761   1.86298
   A25        1.96930  -0.00033  -0.00927   0.01487   0.00551   1.97481
   A26        1.83153   0.00216  -0.01043   0.04113   0.03071   1.86224
   A27        1.86222   0.00175   0.00542   0.00280   0.00816   1.87038
   A28        1.96177  -0.00064   0.00521  -0.01667  -0.01190   1.94986
   A29        1.89492  -0.00013   0.00818  -0.01581  -0.00769   1.88723
   A30        1.92911  -0.00246   0.00431  -0.02339  -0.01912   1.90999
   A31        1.87795   0.00193   0.00390   0.00026   0.00415   1.88210
   A32        1.90482  -0.00005   0.00113  -0.00786  -0.00658   1.89823
   A33        1.92550  -0.00013  -0.00833   0.02098   0.01278   1.93828
   A34        1.93119   0.00081  -0.00958   0.02523   0.01575   1.94694
   A35        1.87163   0.00076  -0.00066   0.00493   0.00427   1.87591
   A36        1.87365  -0.00131   0.00133  -0.00892  -0.00759   1.86606
   A37        1.89167   0.00110  -0.00136   0.00797   0.00661   1.89828
   A38        1.85764   0.00193   0.00471   0.00010   0.00482   1.86245
    D1        1.06785  -0.00038  -0.00379   0.00557   0.00158   1.06943
    D2       -1.04693   0.00039  -0.00005   0.00763   0.00776  -1.03917
    D3        3.13854   0.00044   0.00056   0.00650   0.00708  -3.13756
    D4        0.01478   0.00022  -0.00814   0.03518   0.02744   0.04222
    D5       -3.10795  -0.00080  -0.00684  -0.04195  -0.04913   3.12610
    D6        2.11572   0.00278  -0.01105   0.06494   0.05410   2.16982
    D7       -1.00701   0.00176  -0.00975  -0.01220  -0.02246  -1.02948
    D8       -2.11267  -0.00160  -0.00018   0.00521   0.00553  -2.10713
    D9        1.04779  -0.00263   0.00113  -0.07192  -0.07104   0.97675
   D10        0.22357   0.00065  -0.01377   0.07170   0.05746   0.28103
   D11        2.31700   0.00010  -0.00214   0.05927   0.05686   2.37386
   D12       -2.03182   0.00194   0.01120   0.06238   0.07311  -1.95871
   D13       -2.89959  -0.00045  -0.01238  -0.00415  -0.01620  -2.91578
   D14       -0.80615  -0.00100  -0.00075  -0.01658  -0.01680  -0.82296
   D15        1.12821   0.00084   0.01259  -0.01347  -0.00054   1.12766
   D16        2.99884  -0.00138   0.02239   0.03856   0.06104   3.05988
   D17        0.95520  -0.00089   0.01516   0.03846   0.05400   1.00920
   D18       -1.13328   0.00253   0.02954   0.03444   0.06454  -1.06874
   D19        0.93185  -0.00015   0.01169   0.05276   0.06424   0.99609
   D20       -1.11179   0.00034   0.00446   0.05266   0.05720  -1.05459
   D21        3.08291   0.00376   0.01884   0.04864   0.06774  -3.13254
   D22       -1.05582  -0.00167   0.00212   0.04261   0.04409  -1.01174
   D23       -3.09946  -0.00118  -0.00511   0.04251   0.03705  -3.06242
   D24        1.09524   0.00224   0.00927   0.03849   0.04758   1.14282
   D25        1.30685  -0.00515  -0.01884   0.03863   0.01990   1.32675
   D26       -1.04854   0.00716   0.01050   0.05904   0.06950  -0.97904
   D27       -3.05666   0.00139  -0.00253   0.04549   0.04289  -3.01377
   D28       -3.10809  -0.00130  -0.00322   0.05717   0.05382  -3.05427
   D29       -1.10237  -0.00026  -0.01053   0.08375   0.07306  -1.02931
   D30        1.08103  -0.00255  -0.00477   0.04630   0.04146   1.12250
   D31       -1.06304  -0.00008   0.00190   0.05420   0.05581  -1.00723
   D32        0.94268   0.00096  -0.00540   0.08078   0.07506   1.01774
   D33        3.12608  -0.00133   0.00035   0.04333   0.04346  -3.11364
   D34        1.03693   0.00445  -0.01370   0.11689   0.10358   1.14051
   D35        3.04265   0.00549  -0.02100   0.14346   0.12282  -3.11771
   D36       -1.05713   0.00321  -0.01524   0.10602   0.09123  -0.96591
   D37        2.77501   0.00094  -0.01009   0.04541   0.03562   2.81063
   D38       -1.33275  -0.00174   0.00251   0.00033   0.00243  -1.33031
   D39        0.72677   0.00313  -0.00332   0.05682   0.05361   0.78038
   D40        1.02436  -0.00227   0.01368  -0.10541  -0.09172   0.93264
   D41       -1.06442  -0.00066   0.00392  -0.07191  -0.06802  -1.13244
   D42        3.10833  -0.00140   0.01062  -0.08901  -0.07842   3.02990
   D43       -1.01761  -0.00101   0.00988  -0.08519  -0.07517  -1.09278
   D44       -3.10639   0.00060   0.00012  -0.05169  -0.05147   3.12533
   D45        1.06636  -0.00015   0.00683  -0.06880  -0.06188   1.00448
   D46       -3.10258  -0.00219   0.00669  -0.08778  -0.08116   3.09945
   D47        1.09183  -0.00057  -0.00307  -0.05427  -0.05746   1.03438
   D48       -1.01861  -0.00132   0.00363  -0.07138  -0.06786  -1.08647
   D49       -0.97875   0.00259  -0.00896   0.09412   0.08517  -0.89358
[...]
    17  O    2.032809   0.000000
    18  H    2.797013   0.976934   0.000000
    19  H    2.610451   3.347592   3.361947   0.000000
    20  O    3.341121   2.694801   2.134502   2.063474   0.000000
    21  H    3.706718   2.832262   2.236270   2.747135   0.978815
    22  H    2.357291   3.330951   3.749728   2.633273   3.358931
    23  O    3.350123   2.932066   2.914346   3.357539   2.662282
    24  H    2.916352   2.219770   2.376988   3.606562   2.870254
                   21         22         23         24
    21  H    0.000000
    22  H    3.290117   0.000000
    23  O    2.015447   2.089981   0.000000
    24  H    2.349189   2.308342   0.975256   0.000000
 Stoichiometry    C6H12O6
 Framework group  C1[X(C6H12O6)]
 Deg. of freedom    66
 Full point group                 C1      NOp   1
 Largest Abelian subgroup         C1      NOp   1
 Largest concise Abelian subgroup C1      NOp   1
                         Standard orientation:                         
 ---------------------------------------------------------------------
 Center     Atomic      Atomic             Coordinates (Angstroms)
 Number     Number       Type             X           Y           Z
 ---------------------------------------------------------------------
      1          6           0       -3.164206    0.398366    0.001212
      2          8           0       -4.305635   -0.407416    0.162583
      3          1           0       -5.053894    0.180239    0.344340
      4          1           0       -2.928085    0.988490    0.905280
      5          1           0       -3.256855    1.127066   -0.821245
      6          6           0       -1.962222   -0.486285   -0.288193
      7          8           0       -2.015081   -1.696841   -0.303197
      8          6           0       -0.632834    0.225542   -0.604948
      9          6           0        0.521115   -0.336657    0.258786
     10          6           0        1.905906   -0.006426   -0.340331
     11          6           0        3.018045   -0.840225    0.281001
     12          1           0        2.718662   -1.900373    0.244168
     13          1           0        3.128384   -0.558637    1.339205
     14          8           0        4.206368   -0.609798   -0.457131
     15          1           0        4.938645   -1.031604    0.016241
     16          1           0       -0.430800    0.027158   -1.664766
     17          8           0       -0.696446    1.644896   -0.462821
     18          1           0       -0.627375    1.785601    0.501456
     19          1           0        0.380542   -1.418214    0.351932
     20          8           0        0.421491    0.255801    1.557719
     21          1           0        1.136639    0.923954    1.572308
     22          1           0        1.902418   -0.204878   -1.421718
     23          8           0        2.197853    1.371492   -0.081645
     24          1           0        1.508496    1.890237   -0.536415
 ---------------------------------------------------------------------
 Rotational constants (GHZ):      2.2109444      0.4134259      0.3840764

 **********************************************************************

            Population analysis using the SCF density.

 **********************************************************************

 Orbital symmetries:
       Occupied  (A) (A) (A) (A) (A) (A) (A) (A) (A) (A) (A) (A)
                 (A) (A) (A) (A) (A) (A) (A) (A) (A) (A) (A) (A)
                 (A) (A) (A) (A) (A) (A) (A) (A) (A) (A) (A) (A)
                 (A) (A) (A) (A) (A) (A) (A) (A) (A) (A) (A) (A)
       Virtual   (A) (A) (A) (A) (A) (A) (A) (A) (A) (A) (A) (A)
                 (A) (A) (A) (A) (A) (A) (A) (A) (A) (A) (A) (A)
                 (A) (A) (A) (A) (A) (A) (A) (A) (A) (A) (A) (A)
                 (A) (A) (A) (A) (A) (A) (A) (A) (A) (A) (A) (A)
                 (A) (A) (A) (A) (A) (A) (A) (A) (A) (A) (A) (A)
                 (A) (A) (A) (A) (A) (A) (A) (A) (A) (A) (A) (A)
                 (A) (A) (A) (A) (A) (A) (A) (A) (A) (A) (A) (A)
                 (A) (A) (A) (A) (A) (A) (A) (A) (A) (A) (A) (A)
                 (A) (A) (A) (A) (A) (A) (A) (A) (A) (A) (A) (A)
                 (A) (A) (A) (A) (A) (A) (A) (A) (A) (A) (A) (A)
                 (A) (A) (A) (A) (A) (A) (A) (A) (A) (A) (A) (A)
                 (A) (A) (A) (A) (A) (A) (A) (A) (A) (A) (A) (A)
                 (A) (A) (A) (A) (A) (A) (A) (A) (A) (A) (A) (A)
 The electronic state is 1-A.
 Alpha  occ. eigenvalues --  -19.17646 -19.16417 -19.16375 -19.15379 -19.14979
 Alpha  occ. eigenvalues --  -19.14754 -10.28019 -10.25675 -10.25198 -10.25159
 Alpha  occ. eigenvalues --  -10.24839 -10.24140  -1.06915  -1.05271  -1.03864
 Alpha  occ. eigenvalues --   -1.02402  -1.02376  -1.01440  -0.78773  -0.75177
 Alpha  occ. eigenvalues --   -0.72204  -0.65040  -0.60611  -0.56374  -0.53728
 Alpha  occ. eigenvalues --   -0.53596  -0.53092  -0.51484  -0.49331  -0.48247
 Alpha  occ. eigenvalues --   -0.47091  -0.45054  -0.43812  -0.43047  -0.42848
 Alpha  occ. eigenvalues --   -0.41866  -0.37993  -0.37115  -0.35539  -0.35340
 Alpha  occ. eigenvalues --   -0.35070  -0.33818  -0.31989  -0.29866  -0.28970
 Alpha  occ. eigenvalues --   -0.27925  -0.27261  -0.24467
 Alpha virt. eigenvalues --   -0.02328   0.04627   0.06385   0.06936   0.09175
 Alpha virt. eigenvalues --    0.11493   0.11656   0.12096   0.13693   0.14668
 Alpha virt. eigenvalues --    0.15763   0.16864   0.18258   0.18643   0.19866
 Alpha virt. eigenvalues --    0.20482   0.21058   0.22951   0.24730   0.26802
 Alpha virt. eigenvalues --    0.27810   0.29564   0.32760   0.38813   0.50552
 Alpha virt. eigenvalues --    0.52811   0.54075   0.54976   0.56341   0.57154
 Alpha virt. eigenvalues --    0.57777   0.59257   0.62895   0.64336   0.65107
 Alpha virt. eigenvalues --    0.67458   0.68720   0.69277   0.73257   0.74073
 Alpha virt. eigenvalues --    0.76231   0.78064   0.78759   0.79452   0.81165
 Alpha virt. eigenvalues --    0.81922   0.82453   0.83390   0.84852   0.85548
 Alpha virt. eigenvalues --    0.86485   0.88227   0.90265   0.91560   0.92232
 Alpha virt. eigenvalues --    0.95211   0.96363   0.96870   0.98082   0.98750
 Alpha virt. eigenvalues --    0.99950   1.00675   1.03478   1.04525   1.05999
 Alpha virt. eigenvalues --    1.08487   1.10814   1.14355   1.15894   1.16906
 Alpha virt. eigenvalues --    1.18255   1.19857   1.23771   1.26225   1.30128
 Alpha virt. eigenvalues --    1.32602   1.34882   1.39713   1.41266   1.44425
 Alpha virt. eigenvalues --    1.46142   1.49966   1.53189   1.55229   1.58198
 Alpha virt. eigenvalues --    1.59346   1.62321   1.64902   1.67054   1.68750
 Alpha virt. eigenvalues --    1.70231   1.72587   1.72914   1.74520   1.75467
 Alpha virt. eigenvalues --    1.77625   1.78280   1.81398   1.82789   1.83389
 Alpha virt. eigenvalues --    1.87098   1.87782   1.90168   1.93194   1.95325
 Alpha virt. eigenvalues --    1.97420   2.03832   2.04528   2.05350   2.06079
 Alpha virt. eigenvalues --    2.09127   2.10294   2.11876   2.13748   2.19180
 Alpha virt. eigenvalues --    2.21499   2.24993   2.27725   2.30337   2.33402
 Alpha virt. eigenvalues --    2.36504   2.38555   2.39555   2.40746   2.42391
 Alpha virt. eigenvalues --    2.45126   2.45789   2.48836   2.50006   2.53284
 Alpha virt. eigenvalues --    2.58198   2.59247   2.61718   2.64816   2.66738
 Alpha virt. eigenvalues --    2.75247   2.80260   2.83489   2.87351   2.90235
 Alpha virt. eigenvalues --    2.91658   2.95750   3.01101   3.06110   3.75328
 Alpha virt. eigenvalues --    3.76154   3.77214   3.86388   3.91905   4.04830
 Alpha virt. eigenvalues --    4.16808   4.26718   4.36799   4.50353   4.58733
 Alpha virt. eigenvalues --    4.65749
          Condensed to atoms (all electrons):
              1          2          3          4          5          6
     1  C    5.092905   0.246180  -0.024064   0.346048   0.352887   0.270742
     2  O    0.246180   8.212279   0.234980  -0.035159  -0.036083  -0.035631
     3  H   -0.024064   0.234980   0.391242  -0.003989  -0.004020   0.006543
     4  H    0.346048  -0.035159  -0.003989   0.624234  -0.050818  -0.036154
     5  H    0.352887  -0.036083  -0.004020  -0.050818   0.602245  -0.034641
     6  C    0.270742  -0.035631   0.006543  -0.036154  -0.034641   4.687518
     7  O   -0.073058   0.001998   0.000174  -0.000045   0.000811   0.555626
     8  C   -0.118613   0.001946  -0.000230   0.007367   0.007234   0.249902
     9  C    0.003575   0.000007   0.000003  -0.001627   0.000551  -0.026191
    10  C   -0.000116   0.000000   0.000000   0.000005   0.000005   0.002864
    11  C    0.000002   0.000000   0.000000   0.000000   0.000000  -0.000085
    12  H    0.000000   0.000000   0.000000   0.000000   0.000000   0.000019
    13  H    0.000000   0.000000   0.000000   0.000000   0.000000  -0.000001
    14  O    0.000000   0.000000   0.000000   0.000000   0.000000   0.000000
    15  H    0.000000   0.000000   0.000000   0.000000   0.000000   0.000000
    16  H    0.003684  -0.000024   0.000004   0.000294  -0.000888  -0.037502
    17  O    0.012088   0.000150   0.000012   0.001117   0.002543  -0.037129
    18  H   -0.001434  -0.000024  -0.000001   0.003722  -0.000531  -0.001326
    19  H    0.001219  -0.000011   0.000000  -0.000073  -0.000027   0.000864
    20  O   -0.000467   0.000000   0.000000   0.000888   0.000003   0.002457
    21  H    0.000006   0.000000   0.000000  -0.000027  -0.000001  -0.000215
    22  H    0.000002   0.000000   0.000000  -0.000001   0.000000  -0.000051
    23  O    0.000003   0.000000   0.000000   0.000000   0.000000  -0.000007
    24  H   -0.000023   0.000000   0.000000  -0.000005   0.000002   0.000417
              7          8          9         10         11         12
     1  C   -0.073058  -0.118613   0.003575  -0.000116   0.000002   0.000000
     2  O    0.001998   0.001946   0.000007   0.000000   0.000000   0.000000
     3  H    0.000174  -0.000230   0.000003   0.000000   0.000000   0.000000
     4  H   -0.000045   0.007367  -0.001627   0.000005   0.000000   0.000000
     5  H    0.000811   0.007234   0.000551   0.000005   0.000000   0.000000
     6  C    0.555626   0.249902  -0.026191   0.002864  -0.000085   0.000019
     7  O    8.003441  -0.070584  -0.004422   0.000134   0.000004  -0.000013
     8  C   -0.070584   5.249083   0.284852  -0.018503   0.003762  -0.000147
     9  C   -0.004422   0.284852   5.001529   0.282615  -0.036767   0.003596
    10  C    0.000134  -0.018503   0.282615   4.979895   0.352006  -0.049681
    11  C    0.000004   0.003762  -0.036767   0.352006   4.857065   0.361585
    12  H   -0.000013  -0.000147   0.003596  -0.049681   0.361585   0.644362
    13  H    0.000000   0.000170  -0.005644  -0.024997   0.346172  -0.051918
    14  O    0.000000  -0.000032   0.002285  -0.048476   0.255427  -0.039830
    15  H    0.000000   0.000003  -0.000257   0.006551  -0.022238  -0.002580
    16  H    0.001073   0.350953  -0.031553  -0.005362   0.000068   0.000009
    17  O    0.001567   0.215626  -0.029830  -0.004891   0.000005   0.000003
    18  H   -0.000009  -0.047305  -0.010318  -0.001473   0.000014   0.000000
    19  H    0.014763  -0.070030   0.359712  -0.042786  -0.003166   0.005316
    20  O    0.000030  -0.065366   0.248434  -0.025964  -0.003555  -0.000095
    21  H   -0.000020  -0.000136  -0.041562  -0.020151  -0.002196   0.000040
    22  H    0.000022  -0.004127  -0.053870   0.359818  -0.044297  -0.003065
    23  O    0.000000  -0.004955  -0.038296   0.213750  -0.049325   0.003759
    24  H   -0.000007  -0.001749  -0.000722  -0.025019   0.006162  -0.000248
             13         14         15         16         17         18
     1  C    0.000000   0.000000   0.000000   0.003684   0.012088  -0.001434
     2  O    0.000000   0.000000   0.000000  -0.000024   0.000150  -0.000024
     3  H    0.000000   0.000000   0.000000   0.000004   0.000012  -0.000001
     4  H    0.000000   0.000000   0.000000   0.000294   0.001117   0.003722
     5  H    0.000000   0.000000   0.000000  -0.000888   0.002543  -0.000531
     6  C   -0.000001   0.000000   0.000000  -0.037502  -0.037129  -0.001326
     7  O    0.000000   0.000000   0.000000   0.001073   0.001567  -0.000009
     8  C    0.000170  -0.000032   0.000003   0.350953   0.215626  -0.047305
     9  C   -0.005644   0.002285  -0.000257  -0.031553  -0.029830  -0.010318
    10  C   -0.024997  -0.048476   0.006551  -0.005362  -0.004891  -0.001473
    11  C    0.346172   0.255427  -0.022238   0.000068   0.000005   0.000014
    12  H   -0.051918  -0.039830  -0.002580   0.000009   0.000003   0.000000
    13  H    0.634277  -0.035707  -0.005545  -0.000009  -0.000001  -0.000031
    14  O   -0.035707   8.237830   0.234543  -0.000005   0.000000   0.000000
    15  H   -0.005545   0.234543   0.392367   0.000000   0.000000   0.000000
    16  H   -0.000009  -0.000005   0.000000   0.558359  -0.034980   0.007934
    17  O   -0.000001   0.000000   0.000000  -0.034980   8.281835   0.220260
    18  H   -0.000031   0.000000   0.000000   0.007934   0.220260   0.387670
    19  H   -0.000744  -0.000026  -0.000007   0.005382   0.002977   0.001241
    20  O    0.004585   0.000013   0.000005   0.003139  -0.015778   0.041360
    21  H    0.004093  -0.000107   0.000002  -0.000193   0.002195  -0.000314
    22  H    0.007173   0.002560  -0.000156   0.004373  -0.000001  -0.000111
    23  O   -0.004028   0.003918  -0.000147   0.000468  -0.006932   0.002561
    24  H   -0.000170  -0.000112   0.000020  -0.001285   0.032548  -0.001649
             19         20         21         22         23         24
     1  C    0.001219  -0.000467   0.000006   0.000002   0.000003  -0.000023
     2  O   -0.000011   0.000000   0.000000   0.000000   0.000000   0.000000
     3  H    0.000000   0.000000   0.000000   0.000000   0.000000   0.000000
     4  H   -0.000073   0.000888  -0.000027  -0.000001   0.000000  -0.000005
     5  H   -0.000027   0.000003  -0.000001   0.000000   0.000000   0.000002
     6  C    0.000864   0.002457  -0.000215  -0.000051  -0.000007   0.000417
     7  O    0.014763   0.000030  -0.000020   0.000022   0.000000  -0.000007
     8  C   -0.070030  -0.065366  -0.000136  -0.004127  -0.004955  -0.001749
     9  C    0.359712   0.248434  -0.041562  -0.053870  -0.038296  -0.000722
    10  C   -0.042786  -0.025964  -0.020151   0.359818   0.213750  -0.025019
    11  C   -0.003166  -0.003555  -0.002196  -0.044297  -0.049325   0.006162
    12  H    0.005316  -0.000095   0.000040  -0.003065   0.003759  -0.000248
    13  H   -0.000744   0.004585   0.004093   0.007173  -0.004028  -0.000170
    14  O   -0.000026   0.000013  -0.000107   0.002560   0.003918  -0.000112
    15  H   -0.000007   0.000005   0.000002  -0.000156  -0.000147   0.000020
    16  H    0.005382   0.003139  -0.000193   0.004373   0.000468  -0.001285
    17  O    0.002977  -0.015778   0.002195  -0.000001  -0.006932   0.032548
    18  H    0.001241   0.041360  -0.000314  -0.000111   0.002561  -0.001649
    19  H    0.576170  -0.034830   0.005986   0.002549   0.003332  -0.000004
    20  O   -0.034830   8.301807   0.219758   0.002523  -0.022095   0.001098
    21  H    0.005986   0.219758   0.370999   0.002201   0.051721  -0.001829
    22  H    0.002549   0.002523   0.002201   0.616344  -0.035036  -0.004714
    23  O    0.003332  -0.022095   0.051721  -0.035036   8.295823   0.221493
    24  H   -0.000004   0.001098  -0.001829  -0.004714   0.221493   0.366995
 Mulliken atomic charges:
              1
     1  C   -0.111568
     2  O   -0.590608
     3  H    0.399346
     4  H    0.144222
     5  H    0.160729
     6  C    0.431979
     7  O   -0.431484
     8  C    0.030879
     9  C    0.093898
    10  C    0.069778
    11  C   -0.020641
    12  H    0.128890
    13  H    0.132326
    14  O   -0.612280
    15  H    0.397439
    16  H    0.176061
    17  O   -0.643383
    18  H    0.399765
    19  H    0.172192
    20  O   -0.657949
    21  H    0.409750
    22  H    0.147866
    23  O   -0.636007
    24  H    0.408803
 Sum of Mulliken atomic charges =   0.00000
 Mulliken charges with hydrogens summed into heavy atoms:
              1
     1  C    0.193383
     2  O   -0.191262
     6  C    0.431979
     7  O   -0.431484
     8  C    0.206939
     9  C    0.266090
    10  C    0.217644
    11  C    0.240574
    14  O   -0.214841
    17  O   -0.243619
    20  O   -0.248199
    23  O   -0.227204
 Sum of Mulliken charges with hydrogens summed into heavy atoms =   0.00000
 Electronic spatial extent (au):  <R**2>=           2841.5460
 Charge=              0.0000 electrons
 Dipole moment (field-independent basis, Debye):
    X=              0.4160    Y=              2.1319    Z=              0.7032  Tot=              2.2831
 Quadrupole moment (field-independent basis, Debye-Ang):
   XX=            -62.7408   YY=            -73.3006   ZZ=            -70.6561
   XY=            -18.2132   XZ=              3.8362   YZ=              1.5586
 Traceless Quadrupole moment (field-independent basis, Debye-Ang):
   XX=              6.1584   YY=             -4.4015   ZZ=             -1.7570
   XY=            -18.2132   XZ=              3.8362   YZ=              1.5586
 Octapole moment (field-independent basis, Debye-Ang**2):
  XXX=            -21.2105  YYY=             12.9212  ZZZ=             -4.8259  XYY=             19.2153
  XXY=             11.1942  XXZ=             37.0782  XZZ=             -1.3041  YZZ=              5.4572
  YYZ=              8.7540  XYZ=             -6.1061
 Hexadecapole moment (field-independent basis, Debye-Ang**3):
 XXXX=          -2074.2714 YYYY=           -426.1716 ZZZZ=           -227.8469 XXXY=           -319.3148
 XXXZ=             62.1727 YYYX=            -12.0337 YYYZ=              6.3491 ZZZX=              2.6733
 ZZZY=              7.1166 XXYY=           -531.6439 XXZZ=           -490.6575 YYZZ=           -104.6882
 XXYZ=            -12.0711 YYXZ=             -6.7010 ZZXY=              9.4978
 N-N= 7.814149392512D+02 E-N=-3.174097931883D+03  KE= 6.812442402358D+02

 Test job not archived.
 1\1\GINC-TERMINUS\FOpt\RB3LYP\6-31G(d)\C6H12O6\FRODOX\04-Jan-2018\0\\#
 B3LYP/6-31G* fopt test\\Sugars/Base-Fructuose.xyz\\0,1\C,-0.6963570784
 ,0.3658069853,0.5809224641\O,-0.4944123327,-0.3858145614,1.7524463936\
 H,-0.5152049891,0.2292092024,2.5004953573\H,0.0882712823,1.1279244717,
 0.4232095335\H,-1.6550017511,0.910724965,0.5715528479\C,-0.6725384087,
 -0.5635451675,-0.6219355832\O,-0.4462592902,-1.7512718383,-0.540894847
 4\C,-0.9870007195,0.0636100897,-1.9938295492\C,0.0887306761,-0.3135598
 316,-3.0398916797\C,-0.4171500862,-0.1179732309,-4.4860833069\C,0.4735
 258124,-0.8105243265,-5.5084321824\H,0.6222040922,-1.8546600871,-5.188
 1584167\H,1.4578731404,-0.3183491905,-5.5177653767\O,-0.1678800996,-0.
 7404417899,-6.7708643049\H,0.4552434113,-1.0587717288,-7.4406502924\H,
 -1.9572449329,-0.3485417608,-2.2973853325\O,-1.1441877584,1.482163914,
 -1.9513095116\H,-0.2269083688,1.8173353253,-1.9256406701\H,0.384879208
 2,-1.3525518492,-2.8638395952\O,1.2222287085,0.5329609145,-2.823685615
 9\H,1.1750886421,1.1874307999,-3.5499955751\H,-1.429833067,-0.53390185
 46,-4.5874284298\O,-0.4153153734,1.2826900035,-4.7843235682\H,-1.03558
 07175,1.6995645459,-4.1577367583\\Version=EM64L-G09RevB.01\State=1-A\H
 F=-687.1290608\RMSD=5.956e-09\RMSF=1.142e-05\Dipole=0.115671,0.8770729
 ,-0.1554811\Quadrupole=-0.6276126,-2.6368051,3.2644177,0.103567,-6.110
 0145,12.7743104\PG=C01 [X(C6H12O6)]\\@


 CHILDREN YOU ARE VERY LITTLE,
 AND YOUR BONES ARE VERY BRITTLE;
 IF YOU WOULD GROW GREAT AND STATELY
 YOU MUST TRY TO WALK SEDATELY.
 YOU MUST STILL BE BRIGHT AND QUIET,
 AND CONTENT WITH SIMPLE DIET;
 AND REMAIN, THROUGH ALL BEWILD'RING
 INNOCENT AND HONEST CHILDREN.
     -- A CHILD'S GARDEN OF VERSE,
        ROBERT LOUIS STEVENSON
 Job cpu time:  0 days  0 hours 28 minutes 55.5 seconds.
 File lengths (MBytes):  RWF=     27 Int=      0 D2E=      0 Chk=      4 Scr=      1
 Normal termination of Gaussian 09 at Thu Jan  4 15:37:47 2018.
