 Entering Gaussian System, Link 0=g09
 Input=D_-_Fructuose.inp
 Output=D_-_Fructuose.log
 Initial command:
 /usr/local/g09/l1.exe /home/g09scr/Gau-32375.inp -scrdir=/home/g09scr/
 Entering Link 1 = /usr/local/g09/l1.exe PID=     32377.
  
 Copyright (c) 1988,1990,1992,1993,1995,1998,2003,2009,2010,
            Gaussian, Inc.  All Rights Reserved.
  
 This is part of the Gaussian(R) 09 program.  It is based on
 the Gaussian(R) 03 system (copyright 2003, Gaussian, Inc.),
 the Gaussian(R) 98 system (copyright 1998, Gaussian, Inc.),
 the Gaussian(R) 94 system (copyright 1995, Gaussian, Inc.),
 the Gaussian 92(TM) system (copyright 1992, Gaussian, Inc.),
 the Gaussian 90(TM) system (copyright 1990, Gaussian, Inc.),
 the Gaussian 88(TM) system (copyright 1988, Gaussian, Inc.),
 the Gaussian 86(TM) system (copyright 1986, Carnegie Mellon
 University), and the Gaussian 82(TM) system (copyright 1983,
 Carnegie Mellon University). Gaussian is a federally registered
 trademark of Gaussian, Inc.
  
 This software contains proprietary and confidential information,
 including trade secrets, belonging to Gaussian, Inc.
  
 This software is provided under written license and may be
 used, copied, transmitted, or stored only in accord with that
 written license.
  
 The following legend is applicable only to US Government
 contracts under FAR:
  
                    RESTRICTED RIGHTS LEGEND
  
 Use, reproduction and disclosure by the US Government is
 subject to restrictions as set forth in subparagraphs (a)
 and (c) of the Commercial Computer Software - Restricted
 Rights clause in FAR 52.227-19.
  
 Gaussian, Inc.
 340 Quinnipiac St., Bldg. 40, Wallingford CT 06492
  
  
 ---------------------------------------------------------------
 Warning -- This program may not be used in any manner that
 competes with the business of Gaussian, Inc. or will provide
 assistance to any competitor of Gaussian, Inc.  The licensee
 of this program is prohibited from giving any competitor of
 Gaussian, Inc. access to this program.  By using this program,
 the user acknowledges that Gaussian, Inc. is engaged in the
 business of creating and licensing software in the field of
 computational chemistry and represents and warrants to the
 licensee that it is not a competitor of Gaussian, Inc. and that
 it will not use this program in any manner prohibited above.
 ---------------------------------------------------------------
  

 Cite this work as:
 Gaussian 09, Revision B.01,
 M. J. Frisch, G. W. Trucks, H. B. Schlegel, G. E. Scuseria, 
 M. A. Robb, J. R. Cheeseman, G. Scalmani, V. Barone, B. Mennucci, 
 G. A. Petersson, H. Nakatsuji, M. Caricato, X. Li, H. P. Hratchian, 
 A. F. Izmaylov, J. Bloino, G. Zheng, J. L. Sonnenberg, M. Hada, 
 M. Ehara, K. Toyota, R. Fukuda, J. Hasegawa, M. Ishida, T. Nakajima, 
 Y. Honda, O. Kitao, H. Nakai, T. Vreven, J. A. Montgomery, Jr., 
 J. E. Peralta, F. Ogliaro, M. Bearpark, J. J. Heyd, E. Brothers, 
 K. N. Kudin, V. N. Staroverov, T. Keith, R. Kobayashi, J. Normand, 
 K. Raghavachari, A. Rendell, J. C. Burant, S. S. Iyengar, J. Tomasi, 
 M. Cossi, N. Rega, J. M. Millam, M. Klene, J. E. Knox, J. B. Cross, 
 V. Bakken, C. Adamo, J. Jaramillo, R. Gomperts, R. E. Stratmann, 
 O. Yazyev, A. J. Austin, R. Cammi, C. Pomelli, J. W. Ochterski, 
 R. L. Martin, K. Morokuma, V. G. Zakrzewski, G. A. Voth, 
 P. Salvador, J. J. Dannenberg, S. Dapprich, A. D. Daniels, 
 O. Farkas, J. B. Foresman, J. V. Ortiz, J. Cioslowski, 
 and D. J. Fox, Gaussian, Inc., Wallingford CT, 2010.
 
 ******************************************
 Gaussian 09:  EM64L-G09RevB.01 12-Aug-2010
                 4-Jan-2018 
 ******************************************
 %nproc=4
 Will use up to    4 processors via shared memory.
 %mem=60gb
 -----------------------
 #B3LYP/6-31G* fopt test
 -----------------------
 1/14=-1,18=20,19=15,26=3,38=1/1,3;
 2/9=110,12=2,14=103,17=6,18=5,40=1/2;
 3/5=1,6=6,7=1,11=2,16=1,25=1,30=1,71=1,74=-5/1,2,3;
 4//1;
 5/5=2,38=5/2;
 6/7=2,8=2,9=2,10=2,28=1/1;
 7//1,2,3,16;
 1/14=-1,18=20,19=15/3(2);
 2/9=110/2;
 99//99;
 2/9=110/2;
 3/5=1,6=6,7=1,11=2,16=1,25=1,30=1,71=1,74=-5/1,2,3;
 4/5=5,16=3/1;
 5/5=2,38=5/2;
 7//1,2,3,16;
 1/14=-1,18=20,19=15/3(-5);
 2/9=110/2;
 6/7=2,8=2,9=2,10=2,19=2,28=1/1;
 99/9=1/99;
 ------------------------
 Sugars/D_-_Fructuose.xyz
 ------------------------
 Symbolic Z-matrix:
 Charge =  0 Multiplicity = 1
 O                    -0.3508    0.2852    1.6168 
 O                    -2.1229   -0.0967   -1.5767 
 O                     0.3999   -1.9832    0.0163 
 O                    -4.2737    0.3477    0.1329 
 O                     2.7917   -1.0026    0.5184 
 O                     3.8346    1.3519   -0.1667 
 C                    -0.498     0.2331    0.2008 
 C                    -1.9435   -0.1555   -0.1619 
 C                     0.5984   -0.6447   -0.4216 
 C                    -2.9638    0.7835    0.4823 
 C                     2.033    -0.2421   -0.0847 
 C                     2.4951    1.1234   -0.556 
 H                    -0.3271    1.2533   -0.1665 
 H                    -2.1596   -1.1825    0.153 
 H                     0.5128   -0.6492   -1.5135 
 H                    -2.8919    0.7765    1.5733 
 H                    -2.8443    1.8081    0.1148 
 H                    -0.7717    1.1026    1.932 
 H                     2.4381    1.1623   -1.6468 
 H                     1.8696    1.907    -0.1228 
 H                    -1.9237    0.8101   -1.8659 
 H                     0.4087   -1.9817    0.989 
 H                    -4.8996    0.964     0.5499 
 H                     3.8537    1.3937    0.8047 
 

 GradGradGradGradGradGradGradGradGradGradGradGradGradGradGradGradGradGrad
 Berny optimization.
 Initialization pass.
                           ----------------------------
                           !    Initial Parameters    !
                           ! (Angstroms and Degrees)  !
 --------------------------                            --------------------------
 ! Name  Definition              Value          Derivative Info.                !
 --------------------------------------------------------------------------------
 ! R1    R(1,7)                  1.4246         estimate D2E/DX2                !
 ! R2    R(1,18)                 0.9719         estimate D2E/DX2                !
 ! R3    R(2,8)                  1.4273         estimate D2E/DX2                !
 ! R4    R(2,21)                 0.9724         estimate D2E/DX2                !
 ! R5    R(3,9)                  1.4222         estimate D2E/DX2                !
 ! R6    R(3,22)                 0.9727         estimate D2E/DX2                !
 ! R7    R(4,10)                 1.424          estimate D2E/DX2                !
 ! R8    R(4,23)                 0.9724         estimate D2E/DX2                !
 ! R9    R(5,11)                 1.232          estimate D2E/DX2                !
 ! R10   R(6,12)                 1.4135         estimate D2E/DX2                !
 ! R11   R(6,24)                 0.9725         estimate D2E/DX2                !
 ! R12   R(7,8)                  1.5401         estimate D2E/DX2                !
 ! R13   R(7,9)                  1.5362         estimate D2E/DX2                !
 ! R14   R(7,13)                 1.0977         estimate D2E/DX2                !
 ! R15   R(8,10)                 1.529          estimate D2E/DX2                !
 ! R16   R(8,14)                 1.0957         estimate D2E/DX2                !
 ! R17   R(9,11)                 1.5276         estimate D2E/DX2                !
 ! R18   R(9,15)                 1.0953         estimate D2E/DX2                !
 ! R19   R(10,16)                1.0934         estimate D2E/DX2                !
 ! R20   R(10,17)                1.0951         estimate D2E/DX2                !
 ! R21   R(11,12)                1.5167         estimate D2E/DX2                !
 ! R22   R(12,19)                1.093          estimate D2E/DX2                !
 ! R23   R(12,20)                1.0922         estimate D2E/DX2                !
 ! A1    A(7,1,18)             107.9604         estimate D2E/DX2                !
 ! A2    A(8,2,21)             107.9061         estimate D2E/DX2                !
 ! A3    A(9,3,22)             107.7684         estimate D2E/DX2                !
 ! A4    A(10,4,23)            107.0325         estimate D2E/DX2                !
 ! A5    A(12,6,24)            107.4976         estimate D2E/DX2                !
 ! A6    A(1,7,8)              109.8943         estimate D2E/DX2                !
 ! A7    A(1,7,9)              110.4787         estimate D2E/DX2                !
 ! A8    A(1,7,13)             106.4105         estimate D2E/DX2                !
 ! A9    A(8,7,9)              115.4837         estimate D2E/DX2                !
 ! A10   A(8,7,13)             107.5673         estimate D2E/DX2                !
 ! A11   A(9,7,13)             106.5217         estimate D2E/DX2                !
 ! A12   A(2,8,7)              109.9378         estimate D2E/DX2                !
 ! A13   A(2,8,10)             107.9662         estimate D2E/DX2                !
 ! A14   A(2,8,14)             107.379          estimate D2E/DX2                !
 ! A15   A(7,8,10)             111.847          estimate D2E/DX2                !
 ! A16   A(7,8,14)             110.727          estimate D2E/DX2                !
 ! A17   A(10,8,14)            108.8402         estimate D2E/DX2                !
 ! A18   A(3,9,7)              108.2645         estimate D2E/DX2                !
 ! A19   A(3,9,11)             108.1313         estimate D2E/DX2                !
 ! A20   A(3,9,15)             106.9884         estimate D2E/DX2                !
 ! A21   A(7,9,11)             115.486          estimate D2E/DX2                !
 ! A22   A(7,9,15)             110.5163         estimate D2E/DX2                !
 ! A23   A(11,9,15)            107.1179         estimate D2E/DX2                !
 ! A24   A(4,10,8)             108.8147         estimate D2E/DX2                !
 ! A25   A(4,10,16)            107.6592         estimate D2E/DX2                !
 ! A26   A(4,10,17)            107.7211         estimate D2E/DX2                !
 ! A27   A(8,10,16)            111.8759         estimate D2E/DX2                !
 ! A28   A(8,10,17)            111.1253         estimate D2E/DX2                !
 ! A29   A(16,10,17)           109.4923         estimate D2E/DX2                !
 ! A30   A(5,11,9)             121.5753         estimate D2E/DX2                !
 ! A31   A(5,11,12)            121.3506         estimate D2E/DX2                !
 ! A32   A(9,11,12)            117.0569         estimate D2E/DX2                !
 ! A33   A(6,12,11)            110.407          estimate D2E/DX2                !
 ! A34   A(6,12,19)            108.574          estimate D2E/DX2                !
 ! A35   A(6,12,20)            108.5111         estimate D2E/DX2                !
 ! A36   A(11,12,19)           109.0433         estimate D2E/DX2                !
 ! A37   A(11,12,20)           110.377          estimate D2E/DX2                !
 ! A38   A(19,12,20)           109.9032         estimate D2E/DX2                !
 ! D1    D(18,1,7,8)           -75.5768         estimate D2E/DX2                !
 ! D2    D(18,1,7,9)           155.8453         estimate D2E/DX2                !
 ! D3    D(18,1,7,13)           40.6032         estimate D2E/DX2                !
 ! D4    D(21,2,8,7)           -58.8775         estimate D2E/DX2                !
 ! D5    D(21,2,8,10)           63.3833         estimate D2E/DX2                !
 ! D6    D(21,2,8,14)         -179.4094         estimate D2E/DX2                !
 ! D7    D(22,3,9,7)           -56.7982         estimate D2E/DX2                !
 ! D8    D(22,3,9,11)           68.9952         estimate D2E/DX2                !
 ! D9    D(22,3,9,15)         -175.9244         estimate D2E/DX2                !
 ! D10   D(23,4,10,8)         -179.647          estimate D2E/DX2                !
 ! D11   D(23,4,10,16)          58.9157         estimate D2E/DX2                !
 ! D12   D(23,4,10,17)         -59.0768         estimate D2E/DX2                !
 ! D13   D(24,6,12,11)         -65.5089         estimate D2E/DX2                !
 ! D14   D(24,6,12,19)         175.0007         estimate D2E/DX2                !
 ! D15   D(24,6,12,20)          55.5785         estimate D2E/DX2                !
 ! D16   D(1,7,8,2)            175.0646         estimate D2E/DX2                !
 ! D17   D(1,7,8,10)            55.1345         estimate D2E/DX2                !
 ! D18   D(1,7,8,14)           -66.4466         estimate D2E/DX2                !
 ! D19   D(9,7,8,2)            -59.1574         estimate D2E/DX2                !
 ! D20   D(9,7,8,10)          -179.0875         estimate D2E/DX2                !
 ! D21   D(9,7,8,14)            59.3313         estimate D2E/DX2                !
 ! D22   D(13,7,8,2)            59.6152         estimate D2E/DX2                !
 ! D23   D(13,7,8,10)          -60.3149         estimate D2E/DX2                !
 ! D24   D(13,7,8,14)          178.1039         estimate D2E/DX2                !
 ! D25   D(1,7,9,3)             65.6461         estimate D2E/DX2                !
 ! D26   D(1,7,9,11)           -55.7097         estimate D2E/DX2                !
 ! D27   D(1,7,9,15)          -177.4808         estimate D2E/DX2                !
 ! D28   D(8,7,9,3)            -59.8321         estimate D2E/DX2                !
 ! D29   D(8,7,9,11)           178.8121         estimate D2E/DX2                !
 ! D30   D(8,7,9,15)            57.041          estimate D2E/DX2                !
 ! D31   D(13,7,9,3)          -179.1816         estimate D2E/DX2                !
 ! D32   D(13,7,9,11)           59.4626         estimate D2E/DX2                !
 ! D33   D(13,7,9,15)          -62.3085         estimate D2E/DX2                !
 ! D34   D(2,8,10,4)            60.3309         estimate D2E/DX2                !
 ! D35   D(2,8,10,16)          179.1566         estimate D2E/DX2                !
 ! D36   D(2,8,10,17)          -58.1181         estimate D2E/DX2                !
 ! D37   D(7,8,10,4)          -178.5897         estimate D2E/DX2                !
 ! D38   D(7,8,10,16)          -59.7641         estimate D2E/DX2                !
 ! D39   D(7,8,10,17)           62.9612         estimate D2E/DX2                !
 ! D40   D(14,8,10,4)          -55.9276         estimate D2E/DX2                !
 ! D41   D(14,8,10,16)          62.8981         estimate D2E/DX2                !
 ! D42   D(14,8,10,17)        -174.3766         estimate D2E/DX2                !
 ! D43   D(3,9,11,5)            -2.7873         estimate D2E/DX2                !
 ! D44   D(3,9,11,12)          175.7219         estimate D2E/DX2                !
 ! D45   D(7,9,11,5)           118.6403         estimate D2E/DX2                !
 ! D46   D(7,9,11,12)          -62.8505         estimate D2E/DX2                !
 ! D47   D(15,9,11,5)         -117.7826         estimate D2E/DX2                !
 ! D48   D(15,9,11,12)          60.7266         estimate D2E/DX2                !
 ! D49   D(5,11,12,6)           -1.6942         estimate D2E/DX2                !
 ! D50   D(5,11,12,19)         117.5119         estimate D2E/DX2                !
 ! D51   D(5,11,12,20)        -121.6646         estimate D2E/DX2                !
 ! D52   D(9,11,12,6)          179.793          estimate D2E/DX2                !
 ! D53   D(9,11,12,19)         -61.0008         estimate D2E/DX2                !
 ! D54   D(9,11,12,20)          59.8227         estimate D2E/DX2                !
 --------------------------------------------------------------------------------
 Trust Radius=3.00D-01 FncErr=1.00D-07 GrdErr=1.00D-06
 Number of steps in this run=    125 maximum allowed number of steps=    144.
 GradGradGradGradGradGradGradGradGradGradGradGradGradGradGradGradGradGrad

                          Input orientation:                          
 ---------------------------------------------------------------------
 Center     Atomic      Atomic             Coordinates (Angstroms)
 Number     Number       Type             X           Y           Z
 ---------------------------------------------------------------------
      1          8           0       -0.350800    0.285200    1.616800
      2          8           0       -2.122900   -0.096700   -1.576700
      3          8           0        0.399900   -1.983200    0.016300
      4          8           0       -4.273700    0.347700    0.132900
      5          8           0        2.791700   -1.002600    0.518400
      6          8           0        3.834600    1.351900   -0.166700
      7          6           0       -0.498000    0.233100    0.200800
      8          6           0       -1.943500   -0.155500   -0.161900
      9          6           0        0.598400   -0.644700   -0.421600
     10          6           0       -2.963800    0.783500    0.482300
     11          6           0        2.033000   -0.242100   -0.084700
     12          6           0        2.495100    1.123400   -0.556000
     13          1           0       -0.327100    1.253300   -0.166500
     14          1           0       -2.159600   -1.182500    0.153000
     15          1           0        0.512800   -0.649200   -1.513500
     16          1           0       -2.891900    0.776500    1.573300
     17          1           0       -2.844300    1.808100    0.114800
     18          1           0       -0.771700    1.102600    1.932000
     19          1           0        2.438100    1.162300   -1.646800
     20          1           0        1.869600    1.907000   -0.122800
     21          1           0       -1.923700    0.810100   -1.865900
     22          1           0        0.408700   -1.981700    0.989000
     23          1           0       -4.899600    0.964000    0.549900
     24          1           0        3.853700    1.393700    0.804700
 ---------------------------------------------------------------------
                    Distance matrix (angstroms):
                    1          2          3          4          5
     1  O    0.000000
     2  O    3.672142   0.000000
     3  O    2.875898   3.530021   0.000000
     4  O    4.194641   2.783193   5.223909   0.000000
     5  O    3.569344   5.418800   2.633323   7.203596   0.000000
     6  O    4.672932   6.291133   4.790986   8.175739   2.664709
     7  C    1.424584   2.430756   2.398385   3.778049   3.528449
     8  C    2.427897   1.427340   2.977208   2.402072   4.858241
     9  C    2.433263   3.006665   1.422231   5.002968   2.412935
    10  C    2.891913   2.391933   4.380213   1.424022   6.026378
    11  C    2.975844   4.417998   2.389277   6.337955   1.231956
    12  C    3.677334   4.884301   3.790561   6.847843   2.400455
    13  H    2.029270   2.652558   3.322180   4.060222   3.909615
    14  H    2.751111   2.042589   2.685302   2.609853   4.968023
    15  H    3.379007   2.693727   2.032877   5.158975   3.073580
    16  H    2.588524   3.358026   4.569042   2.041566   6.048249
    17  H    3.285235   2.647613   4.990841   2.043595   6.310897
    18  H    0.971931   3.946522   3.816375   4.008820   4.373551
    19  H    4.381592   4.732094   4.100528   6.991364   3.082193
    20  H    3.253709   4.697733   4.160892   6.343259   3.118842
    21  H    3.857296   0.972421   4.091982   3.119538   5.586212
    22  H    2.471803   4.067559   0.972741   5.299423   2.618929
    23  H    4.721295   3.654802   6.087316   0.972351   7.938804
    24  H    4.423358   6.603946   4.894258   8.221926   2.636677
                    6          7          8          9         10
     6  O    0.000000
     7  C    4.489788   0.000000
     8  C    5.971492   1.540140   0.000000
     9  C    3.811086   1.536232   2.601541   0.000000
    10  C    6.852921   2.542116   1.528963   3.942849   0.000000
    11  C    2.406932   2.591001   3.978192   1.527634   5.132383
    12  C    1.413516   3.213103   4.635954   2.596481   5.567153
    13  H    4.162868   1.097690   2.144175   2.126977   2.755692
    14  H    6.515813   2.183374   1.095714   2.868093   2.149496
    15  H    4.105195   2.176923   2.846748   1.095259   4.257064
    16  H    6.971692   2.812436   2.186094   4.263992   1.093389
    17  H    6.700378   2.827215   2.178010   4.261002   1.095053
    18  H    5.068007   1.956526   2.709308   3.235686   2.647406
    19  H    2.043736   3.591340   4.810400   2.854971   5.818684
    20  H    2.042373   2.917565   4.335339   2.866427   4.999015
    21  H    6.028171   2.576198   1.958671   3.250144   2.568377
    22  H    4.917857   2.519663   3.192557   1.952779   4.390539
    23  H    8.772128   4.475508   3.240134   5.810313   1.945372
    24  H    0.972487   4.544115   6.077982   4.031856   6.852342
                   11         12         13         14         15
    11  C    0.000000
    12  C    1.516658   0.000000
    13  H    2.795172   2.851911   0.000000
    14  H    4.303342   5.242718   3.064842   0.000000
    15  H    2.125608   2.826381   2.477771   3.194269   0.000000
    16  H    5.295390   5.802933   3.135672   2.528082   4.811750
    17  H    5.294448   5.424756   2.592919   3.068218   4.467640
    18  H    3.706972   4.106405   2.150368   3.211353   4.073109
    19  H    2.139299   1.092981   3.137818   5.465914   2.646900
    20  H    2.155640   1.092219   2.292319   5.084833   3.210780
    21  H    4.464893   4.619501   2.373503   2.846412   2.861866
    22  H    2.611013   4.047436   3.513091   2.816697   2.837058
    23  H    7.065291   7.478637   4.637314   3.503226   6.012829
    24  H    2.604193   1.941742   4.294418   6.574291   4.550726
                   16         17         18         19         20
    16  H    0.000000
    17  H    1.787089   0.000000
    18  H    2.174915   2.845280   0.000000
    19  H    6.239133   5.605715   4.807722   0.000000
    20  H    5.179447   4.720920   3.441762   1.788951   0.000000
    21  H    3.573043   2.401391   3.979536   4.381478   4.316331
    22  H    4.340856   5.070386   3.434458   4.577187   4.300269
    23  H    2.261275   2.264084   4.355338   7.662027   6.867594
    24  H    6.817243   6.746176   4.769682   2.840303   2.249530
                   21         22         23         24
    21  H    0.000000
    22  H    4.624358   0.000000
    23  H    3.836112   6.086707   0.000000
    24  H    6.391482   4.826522   8.767544   0.000000
 Stoichiometry    C6H12O6
 Framework group  C1[X(C6H12O6)]
 Deg. of freedom    66
 Full point group                 C1      NOp   1
 Largest Abelian subgroup         C1      NOp   1
 Largest concise Abelian subgroup C1      NOp   1
                         Standard orientation:                         
 ---------------------------------------------------------------------
 Center     Atomic      Atomic             Coordinates (Angstroms)
 Number     Number       Type             X           Y           Z
 ---------------------------------------------------------------------
      1          8           0       -0.290301   -0.221358   -1.597912
      2          8           0       -2.054859    0.145287    1.601547
      3          8           0        0.468395    2.036044    0.014324
      4          8           0       -4.210171   -0.284678   -0.106061
      5          8           0        2.857128    1.053590   -0.498633
      6          8           0        3.896686   -1.307011    0.170362
      7          6           0       -0.434398   -0.177310   -0.181319
      8          6           0       -1.878334    0.212065    0.186739
      9          6           0        0.665099    0.694588    0.443907
     10          6           0       -2.901902   -0.721057   -0.460809
     11          6           0        2.098161    0.291083    0.101589
     12          6           0        2.558480   -1.078103    0.563851
     13          1           0       -0.264796   -1.200001    0.179599
     14          1           0       -2.093011    1.241338   -0.121644
     15          1           0        0.581819    0.692823    1.535994
     16          1           0       -2.832297   -0.707770   -1.551900
     17          1           0       -2.783708   -1.748045   -0.099607
     18          1           0       -0.713528   -1.036033   -1.917026
     19          1           0        2.503710   -1.123319    1.654522
     20          1           0        1.930473   -1.857870    0.127374
     21          1           0       -1.856892   -0.763603    1.884975
     22          1           0        0.475133    2.040262   -0.958385
     23          1           0       -4.838204   -0.897243   -0.525352
     24          1           0        3.913645   -1.343121   -0.801305
 ---------------------------------------------------------------------
 Rotational constants (GHZ):      1.8400094      0.4216893      0.4051558
 Standard basis: 6-31G(d) (6D, 7F)
 There are   204 symmetry adapted basis functions of A   symmetry.
 Integral buffers will be    131072 words long.
 Raffenetti 2 integral format.
 Two-electron integral symmetry is turned on.
   204 basis functions,   384 primitive gaussians,   204 cartesian basis functions
    48 alpha electrons       48 beta electrons
       nuclear repulsion energy       777.7625561619 Hartrees.
 NAtoms=   24 NActive=   24 NUniq=   24 SFac= 1.00D+00 NAtFMM=   50 NAOKFM=F Big=F
 One-electron integrals computed using PRISM.
 NBasis=   204 RedAO= T  NBF=   204
 NBsUse=   204 1.00D-06 NBFU=   204
 Harris functional with IExCor=  402 diagonalized for initial guess.
 ExpMin= 1.61D-01 ExpMax= 5.48D+03 ExpMxC= 8.25D+02 IAcc=1 IRadAn=         1 AccDes= 0.00D+00
 HarFok:  IExCor=  402 AccDes= 0.00D+00 IRadAn=         1 IDoV= 1
 ScaDFX=  1.000000  1.000000  1.000000  1.000000
 FoFCou: FMM=F IPFlag=           0 FMFlag=      100000 FMFlg1=           0
         NFxFlg=           0 DoJE=T BraDBF=F KetDBF=T FulRan=T
         Omega=  0.000000  0.000000  1.000000  0.000000  0.000000 ICntrl=     500 IOpCl=  0
         NMat0=    1 NMatS0=    1 NMatT0=    0 NMatD0=    1 NMtDS0=    0 NMtDT0=    0
         I1Cent=           4 NGrid=           0.
 Petite list used in FoFCou.
 Initial guess orbital symmetries:
       Occupied  (A) (A) (A) (A) (A) (A) (A) (A) (A) (A) (A) (A)
                 (A) (A) (A) (A) (A) (A) (A) (A) (A) (A) (A) (A)
                 (A) (A) (A) (A) (A) (A) (A) (A) (A) (A) (A) (A)
                 (A) (A) (A) (A) (A) (A) (A) (A) (A) (A) (A) (A)
       Virtual   (A) (A) (A) (A) (A) (A) (A) (A) (A) (A) (A) (A)
                 (A) (A) (A) (A) (A) (A) (A) (A) (A) (A) (A) (A)
                 (A) (A) (A) (A) (A) (A) (A) (A) (A) (A) (A) (A)
                 (A) (A) (A) (A) (A) (A) (A) (A) (A) (A) (A) (A)
                 (A) (A) (A) (A) (A) (A) (A) (A) (A) (A) (A) (A)
                 (A) (A) (A) (A) (A) (A) (A) (A) (A) (A) (A) (A)
                 (A) (A) (A) (A) (A) (A) (A) (A) (A) (A) (A) (A)
                 (A) (A) (A) (A) (A) (A) (A) (A) (A) (A) (A) (A)
                 (A) (A) (A) (A) (A) (A) (A) (A) (A) (A) (A) (A)
                 (A) (A) (A) (A) (A) (A) (A) (A) (A) (A) (A) (A)
                 (A) (A) (A) (A) (A) (A) (A) (A) (A) (A) (A) (A)
                 (A) (A) (A) (A) (A) (A) (A) (A) (A) (A) (A) (A)
                 (A) (A) (A) (A) (A) (A) (A) (A) (A) (A) (A) (A)
 The electronic state of the initial guess is 1-A.
 Requested convergence on RMS density matrix=1.00D-08 within 128 cycles.
 Requested convergence on MAX density matrix=1.00D-06.
 Requested convergence on             energy=1.00D-06.
 No special actions if energy rises.
 Keep R1 ints in memory in canonical form, NReq=223281116.
 Integral accuracy reduced to 1.0D-05 until final iterations.
 Initial convergence to 1.0D-05 achieved.  Increase integral accuracy.
 SCF Done:  E(RB3LYP) =  -687.107316055     A.U. after   14 cycles
             Convg  =    0.5231D-08             -V/T =  2.0086

 **********************************************************************

            Population analysis using the SCF density.

 **********************************************************************

 Orbital symmetries:
       Occupied  (A) (A) (A) (A) (A) (A) (A) (A) (A) (A) (A) (A)
                 (A) (A) (A) (A) (A) (A) (A) (A) (A) (A) (A) (A)
                 (A) (A) (A) (A) (A) (A) (A) (A) (A) (A) (A) (A)
                 (A) (A) (A) (A) (A) (A) (A) (A) (A) (A) (A) (A)
       Virtual   (A) (A) (A) (A) (A) (A) (A) (A) (A) (A) (A) (A)
                 (A) (A) (A) (A) (A) (A) (A) (A) (A) (A) (A) (A)
                 (A) (A) (A) (A) (A) (A) (A) (A) (A) (A) (A) (A)
                 (A) (A) (A) (A) (A) (A) (A) (A) (A) (A) (A) (A)
                 (A) (A) (A) (A) (A) (A) (A) (A) (A) (A) (A) (A)
                 (A) (A) (A) (A) (A) (A) (A) (A) (A) (A) (A) (A)
                 (A) (A) (A) (A) (A) (A) (A) (A) (A) (A) (A) (A)
                 (A) (A) (A) (A) (A) (A) (A) (A) (A) (A) (A) (A)
                 (A) (A) (A) (A) (A) (A) (A) (A) (A) (A) (A) (A)
                 (A) (A) (A) (A) (A) (A) (A) (A) (A) (A) (A) (A)
                 (A) (A) (A) (A) (A) (A) (A) (A) (A) (A) (A) (A)
                 (A) (A) (A) (A) (A) (A) (A) (A) (A) (A) (A) (A)
                 (A) (A) (A) (A) (A) (A) (A) (A) (A) (A) (A) (A)
 The electronic state is 1-A.
 Alpha  occ. eigenvalues --  -19.17824 -19.15662 -19.15276 -19.15112 -19.15021
 Alpha  occ. eigenvalues --  -19.14481 -10.27930 -10.26565 -10.25483 -10.25159
 Alpha  occ. eigenvalues --  -10.24972 -10.24903  -1.06145  -1.04880  -1.03704
 Alpha  occ. eigenvalues --   -1.02316  -1.01777  -1.00723  -0.79081  -0.75899
 Alpha  occ. eigenvalues --   -0.71685  -0.66082  -0.61789  -0.57166  -0.55825
 Alpha  occ. eigenvalues --   -0.52771  -0.51354  -0.50675  -0.49830  -0.49249
 Alpha  occ. eigenvalues --   -0.47391  -0.46992  -0.44246  -0.43309  -0.41344
 Alpha  occ. eigenvalues --   -0.41287  -0.38656  -0.36965  -0.36332  -0.34828
 Alpha  occ. eigenvalues --   -0.34035  -0.33272  -0.31036  -0.28806  -0.27996
 Alpha  occ. eigenvalues --   -0.27636  -0.27386  -0.24944
 Alpha virt. eigenvalues --   -0.02848   0.02491   0.04654   0.06277   0.07125
 Alpha virt. eigenvalues --    0.08964   0.10711   0.11558   0.13311   0.14558
 Alpha virt. eigenvalues --    0.15545   0.16047   0.16636   0.17477   0.19693
 Alpha virt. eigenvalues --    0.21179   0.22440   0.23506   0.24349   0.26720
 Alpha virt. eigenvalues --    0.28125   0.30267   0.34205   0.36525   0.51280
 Alpha virt. eigenvalues --    0.52048   0.52794   0.54674   0.55453   0.57383
 Alpha virt. eigenvalues --    0.59302   0.59788   0.61179   0.62894   0.65963
 Alpha virt. eigenvalues --    0.67712   0.67832   0.69362   0.71099   0.72702
 Alpha virt. eigenvalues --    0.76228   0.77654   0.78475   0.80117   0.80590
 Alpha virt. eigenvalues --    0.82567   0.83257   0.84788   0.85261   0.86805
 Alpha virt. eigenvalues --    0.87067   0.88384   0.89588   0.90031   0.91421
 Alpha virt. eigenvalues --    0.93497   0.95613   0.96903   0.98542   0.99109
 Alpha virt. eigenvalues --    1.00316   1.00721   1.02803   1.03729   1.05890
 Alpha virt. eigenvalues --    1.07483   1.08184   1.10710   1.14370   1.18446
 Alpha virt. eigenvalues --    1.18872   1.20921   1.22772   1.22976   1.28622
 Alpha virt. eigenvalues --    1.30711   1.34478   1.39155   1.41242   1.43056
 Alpha virt. eigenvalues --    1.48661   1.51590   1.53023   1.55818   1.58554
 Alpha virt. eigenvalues --    1.62199   1.62245   1.63770   1.65753   1.68123
 Alpha virt. eigenvalues --    1.69280   1.72491   1.72857   1.73839   1.76001
 Alpha virt. eigenvalues --    1.77290   1.78614   1.82074   1.83931   1.85833
 Alpha virt. eigenvalues --    1.86805   1.88858   1.90490   1.92413   1.94043
 Alpha virt. eigenvalues --    1.95971   2.01997   2.03630   2.05920   2.07168
 Alpha virt. eigenvalues --    2.09888   2.11185   2.13481   2.16139   2.18439
 Alpha virt. eigenvalues --    2.18894   2.22682   2.26013   2.28130   2.29127
 Alpha virt. eigenvalues --    2.32886   2.35855   2.36475   2.39528   2.40388
 Alpha virt. eigenvalues --    2.46171   2.46488   2.47253   2.52242   2.53616
 Alpha virt. eigenvalues --    2.54377   2.59578   2.59789   2.62946   2.70707
 Alpha virt. eigenvalues --    2.77678   2.79229   2.87659   2.88398   2.89894
 Alpha virt. eigenvalues --    2.94000   2.97642   2.99957   3.03300   3.67138
 Alpha virt. eigenvalues --    3.74290   3.77571   3.83493   3.85772   4.07105
 Alpha virt. eigenvalues --    4.21626   4.28130   4.37401   4.47304   4.50962
 Alpha virt. eigenvalues --    4.63845
          Condensed to atoms (all electrons):
              1          2          3          4          5          6
     1  O    8.318411   0.001853  -0.002512   0.000083  -0.000405  -0.000003
     2  O    0.001853   8.251220  -0.000151   0.001870   0.000000   0.000000
     3  O   -0.002512  -0.000151   8.222054   0.000000  -0.005192  -0.000015
     4  O    0.000083   0.001870   0.000000   8.249689   0.000000   0.000000
     5  O   -0.000405   0.000000  -0.005192   0.000000   7.996628  -0.005604
     6  O   -0.000003   0.000000  -0.000015   0.000000  -0.005604   8.194436
     7  C    0.187262  -0.034856  -0.046495   0.002168  -0.000785  -0.000003
     8  C   -0.047389   0.220904  -0.003888  -0.047447  -0.000058   0.000000
     9  C   -0.051492   0.001138   0.254521  -0.000024  -0.075731   0.003067
    10  C    0.000494  -0.040548   0.000250   0.249890   0.000000   0.000000
    11  C    0.008892   0.000231  -0.032453   0.000000   0.587751  -0.030655
    12  C   -0.000718  -0.000006   0.002896   0.000000  -0.086964   0.259394
    13  H   -0.038084   0.000268   0.004532  -0.000041   0.000036  -0.000008
    14  H    0.001550  -0.035639   0.012011   0.002914   0.000000   0.000000
    15  H    0.002738   0.011537  -0.032456  -0.000001   0.000567  -0.000054
    16  H    0.007904   0.004590  -0.000003  -0.038085   0.000000   0.000000
    17  H    0.000045  -0.005374  -0.000001  -0.044125   0.000000   0.000000
    18  H    0.236130   0.000003   0.000017  -0.000084  -0.000002  -0.000001
    19  H    0.000036   0.000000  -0.000053   0.000000   0.000111  -0.032154
    20  H    0.001251  -0.000008  -0.000041   0.000000   0.000663  -0.034319
    21  H    0.000047   0.228787   0.000006   0.000083   0.000000   0.000000
    22  H    0.011142  -0.000027   0.241144   0.000000   0.007188  -0.000001
    23  H    0.000010   0.000034   0.000000   0.232630   0.000000   0.000000
    24  H    0.000009   0.000000  -0.000001   0.000000   0.007421   0.240235
              7          8          9         10         11         12
     1  O    0.187262  -0.047389  -0.051492   0.000494   0.008892  -0.000718
     2  O   -0.034856   0.220904   0.001138  -0.040548   0.000231  -0.000006
     3  O   -0.046495  -0.003888   0.254521   0.000250  -0.032453   0.002896
     4  O    0.002168  -0.047447  -0.000024   0.249890   0.000000   0.000000
     5  O   -0.000785  -0.000058  -0.075731   0.000000   0.587751  -0.086964
     6  O   -0.000003   0.000000   0.003067   0.000000  -0.030655   0.259394
     7  C    5.094195   0.291815   0.311001  -0.041719  -0.036736   0.006365
     8  C    0.291815   4.958574  -0.040075   0.327646   0.003873  -0.000239
     9  C    0.311001  -0.040075   5.182911   0.005342   0.198272  -0.123924
    10  C   -0.041719   0.327646   0.005342   4.958206   0.000007   0.000003
    11  C   -0.036736   0.003873   0.198272   0.000007   4.788590   0.228090
    12  C    0.006365  -0.000239  -0.123924   0.000003   0.228090   5.147716
    13  H    0.314489  -0.051782  -0.045671  -0.010724  -0.005086   0.001876
    14  H   -0.035990   0.361492  -0.010006  -0.046970   0.000144  -0.000010
    15  H   -0.039759  -0.008047   0.358464   0.000321  -0.040707   0.003895
    16  H   -0.000480  -0.035546  -0.000282   0.334748  -0.000008   0.000000
    17  H   -0.002976  -0.032915  -0.000135   0.336064  -0.000003   0.000000
    18  H   -0.017249  -0.004410   0.006123   0.004860  -0.000117   0.000033
    19  H   -0.000666  -0.000023   0.006397   0.000000  -0.032850   0.360374
    20  H   -0.000241   0.000330   0.004127  -0.000008  -0.045573   0.352530
    21  H   -0.005251  -0.032885  -0.001639  -0.006486  -0.000091   0.000006
    22  H   -0.008626  -0.001594  -0.041061  -0.000095  -0.001815   0.000568
    23  H   -0.000246   0.006083   0.000003  -0.021734   0.000000   0.000000
    24  H   -0.000058   0.000000   0.000761   0.000000  -0.000819  -0.037616
             13         14         15         16         17         18
     1  O   -0.038084   0.001550   0.002738   0.007904   0.000045   0.236130
     2  O    0.000268  -0.035639   0.011537   0.004590  -0.005374   0.000003
     3  O    0.004532   0.012011  -0.032456  -0.000003  -0.000001   0.000017
     4  O   -0.000041   0.002914  -0.000001  -0.038085  -0.044125  -0.000084
     5  O    0.000036   0.000000   0.000567   0.000000   0.000000  -0.000002
     6  O   -0.000008   0.000000  -0.000054   0.000000   0.000000  -0.000001
     7  C    0.314489  -0.035990  -0.039759  -0.000480  -0.002976  -0.017249
     8  C   -0.051782   0.361492  -0.008047  -0.035546  -0.032915  -0.004410
     9  C   -0.045671  -0.010006   0.358464  -0.000282  -0.000135   0.006123
    10  C   -0.010724  -0.046970   0.000321   0.334748   0.336064   0.004860
    11  C   -0.005086   0.000144  -0.040707  -0.000008  -0.000003  -0.000117
    12  C    0.001876  -0.000010   0.003895   0.000000   0.000000   0.000033
    13  H    0.719140   0.007162   0.001689   0.000651   0.007335  -0.011172
    14  H    0.007162   0.552713  -0.000355  -0.002504   0.006381  -0.000445
    15  H    0.001689  -0.000355   0.558008  -0.000017  -0.000015  -0.000175
    16  H    0.000651  -0.002504  -0.000017   0.663966  -0.053694   0.004632
    17  H    0.007335   0.006381  -0.000015  -0.053694   0.685260  -0.000346
    18  H   -0.011172  -0.000445  -0.000175   0.004632  -0.000346   0.374709
    19  H   -0.000168   0.000000   0.001807   0.000000   0.000000   0.000000
    20  H    0.003196  -0.000001  -0.000049  -0.000001  -0.000008   0.000047
    21  H    0.008478   0.007088   0.000314   0.000060   0.006547  -0.000001
    22  H    0.000672   0.000557   0.006793   0.000018   0.000001  -0.000353
    23  H    0.000000  -0.000150   0.000000  -0.004445  -0.004627  -0.000008
    24  H   -0.000011   0.000000  -0.000002   0.000000   0.000000   0.000000
             19         20         21         22         23         24
     1  O    0.000036   0.001251   0.000047   0.011142   0.000010   0.000009
     2  O    0.000000  -0.000008   0.228787  -0.000027   0.000034   0.000000
     3  O   -0.000053  -0.000041   0.000006   0.241144   0.000000  -0.000001
     4  O    0.000000   0.000000   0.000083   0.000000   0.232630   0.000000
     5  O    0.000111   0.000663   0.000000   0.007188   0.000000   0.007421
     6  O   -0.032154  -0.034319   0.000000  -0.000001   0.000000   0.240235
     7  C   -0.000666  -0.000241  -0.005251  -0.008626  -0.000246  -0.000058
     8  C   -0.000023   0.000330  -0.032885  -0.001594   0.006083   0.000000
     9  C    0.006397   0.004127  -0.001639  -0.041061   0.000003   0.000761
    10  C    0.000000  -0.000008  -0.006486  -0.000095  -0.021734   0.000000
    11  C   -0.032850  -0.045573  -0.000091  -0.001815   0.000000  -0.000819
    12  C    0.360374   0.352530   0.000006   0.000568   0.000000  -0.037616
    13  H   -0.000168   0.003196   0.008478   0.000672   0.000000  -0.000011
    14  H    0.000000  -0.000001   0.007088   0.000557  -0.000150   0.000000
    15  H    0.001807  -0.000049   0.000314   0.006793   0.000000  -0.000002
    16  H    0.000000  -0.000001   0.000060   0.000018  -0.004445   0.000000
    17  H    0.000000  -0.000008   0.006547   0.000001  -0.004627   0.000000
    18  H    0.000000   0.000047  -0.000001  -0.000353  -0.000008   0.000000
    19  H    0.549043  -0.035147   0.000006  -0.000003   0.000000   0.007129
    20  H   -0.035147   0.614027  -0.000018  -0.000021   0.000000  -0.006719
    21  H    0.000006  -0.000018   0.413118   0.000009  -0.000052   0.000000
    22  H   -0.000003  -0.000021   0.000009   0.377417   0.000000  -0.000005
    23  H    0.000000   0.000000  -0.000052   0.000000   0.399424   0.000000
    24  H    0.007129  -0.006719   0.000000  -0.000005   0.000000   0.391404
 Mulliken atomic charges:
              1
     1  O   -0.637254
     2  O   -0.605827
     3  O   -0.614171
     4  O   -0.609521
     5  O   -0.425624
     6  O   -0.594315
     7  C    0.064843
     8  C    0.135581
     9  C    0.057911
    10  C   -0.049548
    11  C    0.411062
    12  C   -0.114268
    13  H    0.093225
    14  H    0.180057
    15  H    0.175505
    16  H    0.118495
    17  H    0.102584
    18  H    0.407808
    19  H    0.176160
    20  H    0.145984
    21  H    0.381873
    22  H    0.408092
    23  H    0.393076
    24  H    0.398272
 Sum of Mulliken atomic charges =   0.00000
 Mulliken charges with hydrogens summed into heavy atoms:
              1
     1  O   -0.229446
     2  O   -0.223954
     3  O   -0.206079
     4  O   -0.216445
     5  O   -0.425624
     6  O   -0.196043
     7  C    0.158068
     8  C    0.315638
     9  C    0.233417
    10  C    0.171531
    11  C    0.411062
    12  C    0.207875
 Sum of Mulliken charges with hydrogens summed into heavy atoms =   0.00000
 Electronic spatial extent (au):  <R**2>=           2789.2027
 Charge=              0.0000 electrons
 Dipole moment (field-independent basis, Debye):
    X=             -2.9987    Y=             -6.0161    Z=             -2.0254  Tot=              7.0205
 Quadrupole moment (field-independent basis, Debye-Ang):
   XX=            -83.6746   YY=            -70.4295   ZZ=            -66.1840
   XY=              5.7217   XZ=              5.9594   YZ=              0.5764
 Traceless Quadrupole moment (field-independent basis, Debye-Ang):
   XX=            -10.2452   YY=              2.9999   ZZ=              7.2453
   XY=              5.7217   XZ=              5.9594   YZ=              0.5764
 Octapole moment (field-independent basis, Debye-Ang**2):
  XXX=            -80.2263  YYY=             -8.8229  ZZZ=             -3.4743  XYY=            -20.2996
  XXY=            -37.7043  XXZ=            -44.0618  XZZ=              7.7836  YZZ=             -9.8721
  YYZ=            -12.4811  XYZ=              8.9036
 Hexadecapole moment (field-independent basis, Debye-Ang**3):
 XXXX=          -2613.1308 YYYY=           -461.5385 ZZZZ=           -302.2845 XXXY=            162.0267
 XXXZ=             31.7895 YYYX=              6.4098 YYYZ=             -7.9374 ZZZX=              2.0672
 ZZZY=             -2.4034 XXYY=           -487.9639 XXZZ=           -444.3105 YYZZ=           -105.1809
 XXYZ=             56.4898 YYXZ=            -13.0559 ZZXY=             11.0081
 N-N= 7.777625561619D+02 E-N=-3.166804678603D+03  KE= 6.812651973851D+02
 Calling FoFJK, ICntrl=      2127 FMM=F ISym2X=0 I1Cent= 0 IOpClX= 0 NMat=1 NMatS=1 NMatT=0.
 ***** Axes restored to original set *****
 -------------------------------------------------------------------
 Center     Atomic                   Forces (Hartrees/Bohr)
 Number     Number              X              Y              Z
 -------------------------------------------------------------------
      1        8           0.008700888   -0.006071814    0.007196266
      2        8           0.005065096   -0.007979760   -0.001588067
      3        8          -0.006437063   -0.003212320   -0.007967724
      4        8          -0.001552338   -0.002604459   -0.001689874
      5        8          -0.022023239    0.022018870   -0.013210946
      6        8           0.002928555    0.006990970   -0.006552350
      7        6          -0.001724348    0.022818153   -0.003204853
      8        6          -0.002779901    0.007131020   -0.012242742
      9        6          -0.006879758   -0.028303765    0.020363374
     10        6          -0.016190409   -0.004843184    0.004761030
     11        6           0.015007406   -0.014194167    0.016795266
     12        6           0.018716838   -0.001757494    0.014835833
     13        1          -0.002437344    0.004938644   -0.006924187
     14        1           0.002049347    0.001442676   -0.003151970
     15        1          -0.005999366    0.000356186   -0.000050993
     16        1           0.007520807    0.001847250    0.004697625
     17        1           0.009436905    0.005971051   -0.000296521
     18        1           0.002320765   -0.004954387   -0.000795381
     19        1           0.000586624    0.003350127   -0.001870698
     20        1          -0.010809994    0.002799607   -0.003498419
     21        1          -0.001863363   -0.000575586    0.001215658
     22        1           0.004482958    0.002198276   -0.001818292
     23        1           0.001782947   -0.002848540   -0.001444929
     24        1           0.000097986   -0.004517353   -0.003557105
 -------------------------------------------------------------------
 Cartesian Forces:  Max     0.028303765 RMS     0.008994033

 GradGradGradGradGradGradGradGradGradGradGradGradGradGradGradGradGradGrad
 Berny optimization.
 Internal  Forces:  Max     0.033619371 RMS     0.005872301
 Search for a local minimum.
 Step number   1 out of a maximum of  125
 All quantities printed in internal units (Hartrees-Bohrs-Radians)
 Mixed Optimization -- RFO/linear search
 Second derivative matrix not updated -- first step.
 ITU=  0
     Eigenvalues ---    0.00235   0.00287   0.00383   0.00400   0.00474
     Eigenvalues ---    0.00546   0.01330   0.01367   0.01374   0.01398
     Eigenvalues ---    0.01513   0.03721   0.04234   0.04406   0.04671
     Eigenvalues ---    0.04839   0.05234   0.05249   0.05567   0.06326
     Eigenvalues ---    0.07335   0.07405   0.07684   0.08492   0.11472
     Eigenvalues ---    0.11573   0.13692   0.13979   0.16000   0.16000
     Eigenvalues ---    0.16000   0.16000   0.16000   0.16561   0.17760
     Eigenvalues ---    0.18243   0.19669   0.19782   0.20268   0.22028
     Eigenvalues ---    0.22147   0.24991   0.25000   0.28507   0.28855
     Eigenvalues ---    0.29519   0.29643   0.30691   0.33939   0.34161
     Eigenvalues ---    0.34212   0.34235   0.34424   0.34470   0.34558
     Eigenvalues ---    0.41374   0.41778   0.41860   0.42126   0.43452
     Eigenvalues ---    0.52821   0.52872   0.52885   0.52900   0.52984
     Eigenvalues ---    0.90276
 RFO step:  Lambda=-2.07478709D-02 EMin= 2.34970985D-03
 Linear search not attempted -- first point.
 Iteration  1 RMS(Cart)=  0.07010392 RMS(Int)=  0.00269119
 Iteration  2 RMS(Cart)=  0.00427211 RMS(Int)=  0.00110852
 Iteration  3 RMS(Cart)=  0.00001212 RMS(Int)=  0.00110850
 Iteration  4 RMS(Cart)=  0.00000001 RMS(Int)=  0.00110850
 Variable       Old X    -DE/DX   Delta X   Delta X   Delta X     New X
                                 (Linear)    (Quad)   (Total)
    R1        2.69207   0.00710   0.00000   0.01618   0.01618   2.70826
    R2        1.83668  -0.00543   0.00000  -0.00986  -0.00986   1.82682
    R3        2.69728  -0.00038   0.00000  -0.00087  -0.00087   2.69641
    R4        1.83761  -0.00128   0.00000  -0.00232  -0.00232   1.83529
    R5        2.68763  -0.00178   0.00000  -0.00403  -0.00403   2.68359
    R6        1.83821  -0.00177   0.00000  -0.00323  -0.00323   1.83498
    R7        2.69101   0.00223   0.00000   0.00507   0.00507   2.69608
    R8        1.83748  -0.00357   0.00000  -0.00650  -0.00650   1.83098
    R9        2.32806  -0.03362   0.00000  -0.03640  -0.03640   2.29166
   R10        2.67116   0.00049   0.00000   0.00107   0.00107   2.67223
   R11        1.83773  -0.00374   0.00000  -0.00680  -0.00680   1.83093
   R12        2.91044  -0.00034   0.00000  -0.00112  -0.00112   2.90932
   R13        2.90306  -0.00467   0.00000  -0.01511  -0.01511   2.88795
   R14        2.07433   0.00653   0.00000   0.01813   0.01813   2.09246
   R15        2.88932   0.00035   0.00000   0.00112   0.00112   2.89044
   R16        2.07060  -0.00267   0.00000  -0.00736  -0.00736   2.06325
   R17        2.88681   0.00876   0.00000   0.02762   0.02762   2.91443
   R18        2.06974   0.00052   0.00000   0.00142   0.00142   2.07117
   R19        2.06621   0.00517   0.00000   0.01415   0.01415   2.08036
   R20        2.06935   0.00672   0.00000   0.01851   0.01851   2.08786
   R21        2.86607   0.00987   0.00000   0.03011   0.03011   2.89618
   R22        2.06543   0.00195   0.00000   0.00534   0.00534   2.07077
   R23        2.06399   0.00681   0.00000   0.01859   0.01859   2.08258
    A1        1.88426   0.00182   0.00000   0.01005   0.01005   1.89432
    A2        1.88332  -0.00116   0.00000  -0.00641  -0.00641   1.87691
    A3        1.88091  -0.00523   0.00000  -0.02895  -0.02895   1.85196
    A4        1.86807   0.00122   0.00000   0.00673   0.00673   1.87480
    A5        1.87619  -0.00095   0.00000  -0.00525  -0.00525   1.87094
    A6        1.91802   0.01473   0.00000   0.05277   0.04666   1.96468
    A7        1.92822  -0.01222   0.00000  -0.08484  -0.08437   1.84384
    A8        1.85721   0.00283   0.00000   0.06795   0.06802   1.92523
    A9        2.01557  -0.00956   0.00000  -0.06664  -0.06719   1.94839
   A10        1.87740  -0.00235   0.00000   0.00031  -0.00064   1.87676
   A11        1.85915   0.00753   0.00000   0.04427   0.04571   1.90486
   A12        1.91878  -0.00093   0.00000   0.00688   0.00580   1.92458
   A13        1.88437   0.00699   0.00000   0.05607   0.05578   1.94014
   A14        1.87412  -0.00334   0.00000  -0.03672  -0.03683   1.83729
   A15        1.95210  -0.00224   0.00000   0.00285   0.00209   1.95419
   A16        1.93255  -0.00052   0.00000  -0.02651  -0.02666   1.90589
   A17        1.89962   0.00017   0.00000  -0.00228  -0.00199   1.89763
   A18        1.88957   0.00883   0.00000   0.05411   0.05517   1.94474
   A19        1.88725   0.00652   0.00000   0.05473   0.05524   1.94249
   A20        1.86730  -0.00513   0.00000  -0.02669  -0.02640   1.84090
   A21        2.01561  -0.01399   0.00000  -0.05629  -0.05792   1.95769
   A22        1.92887  -0.00253   0.00000  -0.04965  -0.04992   1.87896
   A23        1.86956   0.00678   0.00000   0.02626   0.02384   1.89340
   A24        1.89918  -0.00725   0.00000  -0.02276  -0.02235   1.87683
   A25        1.87901   0.00682   0.00000   0.05078   0.05028   1.92929
   A26        1.88009   0.00815   0.00000   0.06132   0.06083   1.94091
   A27        1.95260  -0.00246   0.00000  -0.02889  -0.02924   1.92336
   A28        1.93950  -0.00403   0.00000  -0.03784  -0.03815   1.90135
   A29        1.91100  -0.00049   0.00000  -0.01609  -0.01889   1.89212
   A30        2.12189  -0.00241   0.00000  -0.00868  -0.00883   2.11305
   A31        2.11797  -0.00173   0.00000  -0.00616  -0.00632   2.11164
   A32        2.04303   0.00416   0.00000   0.01560   0.01544   2.05847
   A33        1.92697   0.01204   0.00000   0.05868   0.05785   1.98481
   A34        1.89497  -0.00851   0.00000  -0.05110  -0.05059   1.84438
   A35        1.89388   0.00546   0.00000   0.06470   0.06414   1.95802
   A36        1.90317   0.00102   0.00000   0.00014   0.00027   1.90344
   A37        1.92644  -0.00738   0.00000  -0.03068  -0.03294   1.89350
   A38        1.91817  -0.00267   0.00000  -0.04243  -0.04247   1.87570
    D1       -1.31906  -0.00540   0.00000  -0.05313  -0.05524  -1.37430
    D2        2.72001   0.00514   0.00000   0.05832   0.05830   2.77831
    D3        0.70866   0.00083   0.00000   0.01117   0.01329   0.72195
    D4       -1.02761  -0.00248   0.00000  -0.06197  -0.06219  -1.08980
    D5        1.10625  -0.00137   0.00000  -0.01873  -0.01806   1.08819
    D6       -3.13128   0.00071   0.00000  -0.01161  -0.01206   3.13984
    D7       -0.99132  -0.00030   0.00000  -0.08411  -0.08552  -1.07683
    D8        1.20419  -0.00769   0.00000  -0.08361  -0.08166   1.12254
    D9       -3.07046   0.00079   0.00000  -0.03974  -0.04027  -3.11073
   D10       -3.13543   0.00012   0.00000  -0.00541  -0.00535  -3.14078
   D11        1.02827   0.00326   0.00000   0.01250   0.01383   1.04211
   D12       -1.03108  -0.00411   0.00000  -0.02806  -0.02946  -1.06054
   D13       -1.14335   0.00299   0.00000   0.05870   0.05664  -1.08670
   D14        3.05434  -0.00017   0.00000   0.05508   0.05494   3.10928
   D15        0.97003   0.00478   0.00000   0.09818   0.10038   1.07041
   D16        3.05545   0.01098   0.00000   0.11824   0.11893  -3.10880
   D17        0.96228   0.00425   0.00000   0.04124   0.04217   1.00445
   D18       -1.15971   0.00594   0.00000   0.06082   0.06164  -1.09807
   D19       -1.03249  -0.00070   0.00000  -0.00501  -0.00600  -1.03849
   D20       -3.12567  -0.00743   0.00000  -0.08201  -0.08276   3.07476
   D21        1.03553  -0.00574   0.00000  -0.06243  -0.06329   0.97224
   D22        1.04048   0.00122   0.00000   0.00996   0.00989   1.05037
   D23       -1.05269  -0.00550   0.00000  -0.06704  -0.06687  -1.11956
   D24        3.10850  -0.00381   0.00000  -0.04746  -0.04740   3.06110
   D25        1.14574   0.00250   0.00000  -0.02335  -0.02122   1.12452
   D26       -0.97232  -0.00319   0.00000  -0.09739  -0.09412  -1.06644
   D27       -3.09762   0.00008   0.00000  -0.05156  -0.05049   3.13507
   D28       -1.04427   0.00043   0.00000   0.03002   0.02778  -1.01649
   D29        3.12086  -0.00527   0.00000  -0.04402  -0.04513   3.07573
   D30        0.99555  -0.00200   0.00000   0.00181  -0.00149   0.99406
   D31       -3.12731   0.00384   0.00000   0.03858   0.03862  -3.08869
   D32        1.03782  -0.00185   0.00000  -0.03546  -0.03429   1.00353
   D33       -1.08749   0.00142   0.00000   0.01037   0.00935  -1.07814
   D34        1.05297  -0.00047   0.00000  -0.01848  -0.01868   1.03429
   D35        3.12687   0.00179   0.00000   0.01208   0.01146   3.13833
   D36       -1.01435  -0.00354   0.00000  -0.05693  -0.05673  -1.07108
   D37       -3.11698   0.00163   0.00000   0.02905   0.02932  -3.08766
   D38       -1.04308   0.00389   0.00000   0.05961   0.05946  -0.98362
   D39        1.09888  -0.00144   0.00000  -0.00940  -0.00873   1.09015
   D40       -0.97612  -0.00039   0.00000  -0.00417  -0.00422  -0.98034
   D41        1.09778   0.00187   0.00000   0.02639   0.02592   1.12370
   D42       -3.04345  -0.00346   0.00000  -0.04262  -0.04227  -3.08571
   D43       -0.04865  -0.00293   0.00000  -0.05472  -0.05391  -0.10256
   D44        3.06693  -0.00209   0.00000  -0.02197  -0.02118   3.04574
   D45        2.07066   0.00402   0.00000   0.01900   0.01897   2.08964
   D46       -1.09695   0.00486   0.00000   0.05176   0.05170  -1.04525
   D47       -2.05569  -0.00360   0.00000  -0.06393  -0.06467  -2.12036
   D48        1.05988  -0.00276   0.00000  -0.03118  -0.03194   1.02794
   D49       -0.02957   0.00576   0.00000   0.10516   0.10496   0.07538
   D50        2.05097   0.00321   0.00000   0.07801   0.07776   2.12874
   D51       -2.12345  -0.00404   0.00000   0.00654   0.00703  -2.11641
   D52        3.13798   0.00493   0.00000   0.07252   0.07230  -3.07291
   D53       -1.06467   0.00239   0.00000   0.04538   0.04511  -1.01956
   D54        1.04410  -0.00487   0.00000  -0.02609  -0.02563   1.01848
         Item               Value     Threshold  Converged?
 Maximum Force            0.033619     0.000450     NO 
 RMS     Force            0.005872     0.000300     NO 
 Maximum Displacement     0.194688     0.001800     NO 
 RMS     Displacement     0.070857     0.001200     NO 
 Predicted change in Energy=-1.260162D-02
 GradGradGradGradGradGradGradGradGradGradGradGradGradGradGradGradGradGrad

                          Input orientation:                          
 ---------------------------------------------------------------------
 Center     Atomic      Atomic             Coordinates (Angstroms)
 Number     Number       Type             X           Y           Z
 ---------------------------------------------------------------------
      1          8           0       -0.290216    0.240734    1.638634
      2          8           0       -2.046317   -0.084353   -1.612649
      3          8           0        0.303546   -2.013343    0.036883
      4          8           0       -4.251061    0.312075    0.083195
      5          8           0        2.733512   -0.969464    0.588197
      6          8           0        3.823233    1.396198   -0.259735
      7          6           0       -0.485871    0.284735    0.219588
      8          6           0       -1.918107   -0.102286   -0.191656
      9          6           0        0.547985   -0.674593   -0.368914
     10          6           0       -2.965422    0.795865    0.468637
     11          6           0        1.992717   -0.245139   -0.042039
     12          6           0        2.461140    1.129873   -0.530673
     13          1           0       -0.293251    1.305652   -0.163427
     14          1           0       -2.108632   -1.136699    0.101203
     15          1           0        0.422479   -0.671487   -1.457714
     16          1           0       -2.854451    0.767710    1.563545
     17          1           0       -2.811429    1.835856    0.128939
     18          1           0       -0.668676    1.041505    2.026024
     19          1           0        2.361819    1.175064   -1.621030
     20          1           0        1.794447    1.897591   -0.105635
     21          1           0       -1.883971    0.825935   -1.909693
     22          1           0        0.384456   -2.020619    1.004510
     23          1           0       -4.913054    0.882530    0.501687
     24          1           0        3.930125    1.390862    0.703223
 ---------------------------------------------------------------------
                    Distance matrix (angstroms):
                    1          2          3          4          5
     1  O    0.000000
     2  O    3.709503   0.000000
     3  O    2.828255   3.458875   0.000000
     4  O    4.255910   2.809616   5.114114   0.000000
     5  O    3.422123   5.336094   2.701548   7.119103   0.000000
     6  O    4.675400   6.202743   4.909292   8.153965   2.739130
     7  C    1.433147   2.434812   2.436744   3.767759   3.474667
     8  C    2.473390   1.426878   2.939407   2.385354   4.795594
     9  C    2.360224   2.936948   1.420097   4.920240   2.404067
    10  C    2.972170   2.439527   4.331768   1.426704   5.967288
    11  C    2.876199   4.336641   2.446645   6.269843   1.212692
    12  C    3.614751   4.791888   3.854497   6.789645   2.394425
    13  H    2.093199   2.665633   3.378168   4.088065   3.860360
    14  H    2.750937   2.012114   2.567342   2.586363   4.869444
    15  H    3.305670   2.542377   2.012099   5.018343   3.100873
    16  H    2.618900   3.386340   4.476371   2.085560   5.932487
    17  H    3.343667   2.702911   4.952563   2.096793   6.231140
    18  H    0.966714   4.050357   3.772796   4.140065   4.205499
    19  H    4.304843   4.584524   4.141389   6.883263   3.101264
    20  H    3.183311   4.577189   4.187900   6.252814   3.095683
    21  H    3.933591   0.971193   4.078712   3.136681   5.548338
    22  H    2.443566   4.062918   0.971031   5.270513   2.606973
    23  H    4.803663   3.690998   5.984567   0.968911   7.868121
    24  H    4.473150   6.577034   5.018435   8.275265   2.648821
                    6          7          8          9         10
     6  O    0.000000
     7  C    4.475877   0.000000
     8  C    5.934060   1.539548   0.000000
     9  C    3.876511   1.528235   2.537828   0.000000
    10  C    6.853959   2.543906   1.529553   3.899715   0.000000
    11  C    2.468231   2.548060   3.916291   1.542247   5.091917
    12  C    1.414083   3.156268   4.561903   2.634849   5.527908
    13  H    4.118606   1.107282   2.150173   2.161313   2.792827
    14  H    6.460098   2.160519   1.091822   2.737183   2.145671
    15  H    4.156393   2.133729   2.721256   1.096013   4.164351
    16  H    6.950597   2.765801   2.171258   4.170277   1.100878
    17  H    6.660563   2.796859   2.158055   4.223255   1.104848
    18  H    5.052498   1.967061   2.790599   3.187630   2.785828
    19  H    2.009417   3.505695   4.689617   2.877328   5.734980
    20  H    2.095499   2.811926   4.217816   2.870386   4.919344
    21  H    5.968227   2.604115   1.953051   3.246536   2.612832
    22  H    5.009804   2.586161   3.226858   1.929980   4.409244
    23  H    8.784436   4.476258   3.228048   5.745044   1.949839
    24  H    0.968887   4.578039   6.101813   4.105417   6.925144
                   11         12         13         14         15
    11  C    0.000000
    12  C    1.532593   0.000000
    13  H    2.765020   2.784320   0.000000
    14  H    4.199579   5.139984   3.054622   0.000000
    15  H    2.156746   2.874099   2.469115   3.008848   0.000000
    16  H    5.205650   5.724720   3.135531   2.514252   4.683755
    17  H    5.238281   5.360363   2.589945   3.054632   4.388895
    18  H    3.607679   4.042308   2.237054   3.243915   4.032541
    19  H    2.155557   1.095804   3.031676   5.319330   2.682809
    20  H    2.152823   1.102056   2.170764   4.948103   3.211009
    21  H    4.434415   4.568815   2.410386   2.818884   2.786803
    22  H    2.614211   4.073697   3.589908   2.795133   2.807873
    23  H    7.018329   7.450214   4.686575   3.478858   5.892549
    24  H    2.643003   1.936111   4.312221   6.574008   4.607224
                   16         17         18         19         20
    16  H    0.000000
    17  H    1.789101   0.000000
    18  H    2.250880   2.970070   0.000000
    19  H    6.125106   5.501049   4.743705   0.000000
    20  H    5.067054   4.612259   3.368059   1.772112   0.000000
    21  H    3.606744   2.456855   4.124715   4.269889   4.234835
    22  H    4.310199   5.084556   3.395465   4.584301   4.309625
    23  H    2.319175   2.337648   4.512606   7.583883   6.811002
    24  H    6.867237   6.780588   4.798002   2.812171   2.339262
                   21         22         23         24
    21  H    0.000000
    22  H    4.662747   0.000000
    23  H    3.872118   6.061742   0.000000
    24  H    6.399233   4.929579   8.860069   0.000000
 Stoichiometry    C6H12O6
 Framework group  C1[X(C6H12O6)]
 Deg. of freedom    66
 Full point group                 C1      NOp   1
 Largest Abelian subgroup         C1      NOp   1
 Largest concise Abelian subgroup C1      NOp   1
                         Standard orientation:                         
 ---------------------------------------------------------------------
 Center     Atomic      Atomic             Coordinates (Angstroms)
 Number     Number       Type             X           Y           Z
 ---------------------------------------------------------------------
      1          8           0        0.213392    0.008334    1.630219
      2          8           0        1.983965   -0.067325   -1.628578
      3          8           0       -0.357428    2.060375   -0.230512
      4          8           0        4.179343   -0.275063    0.112427
      5          8           0       -2.797215    1.106465    0.429683
      6          8           0       -3.901552   -1.335427   -0.136390
      7          6           0        0.413984   -0.205241    0.227344
      8          6           0        1.850612    0.120125   -0.220367
      9          6           0       -0.610427    0.684661   -0.475621
     10          6           0        2.888675   -0.700606    0.546679
     11          6           0       -2.059555    0.307233   -0.106701
     12          6           0       -2.536496   -1.112747   -0.430781
     13          1           0        0.215110   -1.263037   -0.032638
     14          1           0        2.047828    1.180629   -0.051513
     15          1           0       -0.480900    0.551400   -1.555765
     16          1           0        2.773848   -0.541849    1.629981
     17          1           0        2.728122   -1.772468    0.332148
     18          1           0        0.584370   -0.743410    2.111667
     19          1           0       -2.433464   -1.287794   -1.507596
     20          1           0       -1.877185   -1.829229    0.085446
     21          1           0        1.815877   -1.005282   -1.816194
     22          1           0       -0.441877    2.183073    0.729027
     23          1           0        4.835462   -0.796428    0.598715
     24          1           0       -4.011980   -1.215026    0.818623
 ---------------------------------------------------------------------
 Rotational constants (GHZ):      1.7950717      0.4288814      0.4115539
 Standard basis: 6-31G(d) (6D, 7F)
 There are   204 symmetry adapted basis functions of A   symmetry.
 Integral buffers will be    131072 words long.
 Raffenetti 2 integral format.
 Two-electron integral symmetry is turned on.
   204 basis functions,   384 primitive gaussians,   204 cartesian basis functions
    48 alpha electrons       48 beta electrons
       nuclear repulsion energy       779.0264308851 Hartrees.
 NAtoms=   24 NActive=   24 NUniq=   24 SFac= 1.00D+00 NAtFMM=   50 NAOKFM=F Big=F
 One-electron integrals computed using PRISM.
 NBasis=   204 RedAO= T  NBF=   204
 NBsUse=   204 1.00D-06 NBFU=   204
 Initial guess read from the read-write file.
 B after Tr=     0.000000    0.000000    0.000000
         Rot=    1.000000    0.000000    0.000000    0.000000 Ang=   0.00 deg.
 Initial guess orbital symmetries:
       Occupied  (A) (A) (A) (A) (A) (A) (A) (A) (A) (A) (A) (A)
                 (A) (A) (A) (A) (A) (A) (A) (A) (A) (A) (A) (A)
                 (A) (A) (A) (A) (A) (A) (A) (A) (A) (A) (A) (A)
                 (A) (A) (A) (A) (A) (A) (A) (A) (A) (A) (A) (A)
       Virtual   (A) (A) (A) (A) (A) (A) (A) (A) (A) (A) (A) (A)
                 (A) (A) (A) (A) (A) (A) (A) (A) (A) (A) (A) (A)
                 (A) (A) (A) (A) (A) (A) (A) (A) (A) (A) (A) (A)
                 (A) (A) (A) (A) (A) (A) (A) (A) (A) (A) (A) (A)
                 (A) (A) (A) (A) (A) (A) (A) (A) (A) (A) (A) (A)
                 (A) (A) (A) (A) (A) (A) (A) (A) (A) (A) (A) (A)
                 (A) (A) (A) (A) (A) (A) (A) (A) (A) (A) (A) (A)
                 (A) (A) (A) (A) (A) (A) (A) (A) (A) (A) (A) (A)
                 (A) (A) (A) (A) (A) (A) (A) (A) (A) (A) (A) (A)
                 (A) (A) (A) (A) (A) (A) (A) (A) (A) (A) (A) (A)
                 (A) (A) (A) (A) (A) (A) (A) (A) (A) (A) (A) (A)
                 (A) (A) (A) (A) (A) (A) (A) (A) (A) (A) (A) (A)
                 (A) (A) (A) (A) (A) (A) (A) (A) (A) (A) (A) (A)
 Harris functional with IExCor=  402 diagonalized for initial guess.
 ExpMin= 1.61D-01 ExpMax= 5.48D+03 ExpMxC= 8.25D+02 IAcc=1 IRadAn=         1 AccDes= 0.00D+00
 HarFok:  IExCor=  402 AccDes= 0.00D+00 IRadAn=         1 IDoV= 1
 ScaDFX=  1.000000  1.000000  1.000000  1.000000
 FoFCou: FMM=F IPFlag=           0 FMFlag=      100000 FMFlg1=           0
         NFxFlg=           0 DoJE=T BraDBF=F KetDBF=T FulRan=T
         Omega=  0.000000  0.000000  1.000000  0.000000  0.000000 ICntrl=     500 IOpCl=  0
         NMat0=    1 NMatS0=    1 NMatT0=    0 NMatD0=    1 NMtDS0=    0 NMtDT0=    0
         I1Cent=           4 NGrid=           0.
 Petite list used in FoFCou.
 Requested convergence on RMS density matrix=1.00D-08 within 128 cycles.
 Requested convergence on MAX density matrix=1.00D-06.
 Requested convergence on             energy=1.00D-06.
 No special actions if energy rises.
 Keep R1 ints in memory in canonical form, NReq=223280970.
 Integral accuracy reduced to 1.0D-05 until final iterations.
 Initial convergence to 1.0D-05 achieved.  Increase integral accuracy.
 SCF Done:  E(RB3LYP) =  -687.118154975     A.U. after   15 cycles
             Convg  =    0.4631D-08             -V/T =  2.0086
 Calling FoFJK, ICntrl=      2127 FMM=F ISym2X=0 I1Cent= 0 IOpClX= 0 NMat=1 NMatS=1 NMatT=0.
 ***** Axes restored to original set *****
 -------------------------------------------------------------------
 Center     Atomic                   Forces (Hartrees/Bohr)
 Number     Number              X              Y              Z
 -------------------------------------------------------------------
      1        8           0.000256003    0.000833753   -0.001732256
      2        8           0.003629675   -0.000044421    0.003222618
      3        8          -0.000393104    0.008785473   -0.001238213
      4        8           0.004968418    0.003244502    0.001815999
      5        8          -0.001100744    0.002113934    0.001306881
      6        8          -0.007136651    0.001345535   -0.000813593
      7        6          -0.001013077    0.004258942    0.001509202
      8        6          -0.003903487    0.000496357   -0.001747031
      9        6           0.002005554   -0.011842311   -0.004973978
     10        6          -0.006986397   -0.005135007   -0.003392283
     11        6           0.001266442   -0.001671002    0.003920961
     12        6           0.007080687   -0.000380270   -0.000818787
     13        1           0.000297229   -0.001654339    0.000777863
     14        1           0.000717436   -0.000313626    0.000184735
     15        1          -0.000253184    0.000307476   -0.000394893
     16        1           0.001887372    0.000393521   -0.000111492
     17        1           0.000076102    0.001423435    0.000596381
     18        1          -0.001073006   -0.000007605    0.001794424
     19        1          -0.002385680    0.000564450   -0.000672337
     20        1          -0.000122344    0.001557259   -0.000664419
     21        1          -0.001919902    0.001026684   -0.000983904
     22        1           0.003308254   -0.001045242    0.001241532
     23        1          -0.000704264   -0.000257966    0.000132341
     24        1           0.001498664   -0.003999531    0.001040247
 -------------------------------------------------------------------
 Cartesian Forces:  Max     0.011842311 RMS     0.002970459

 GradGradGradGradGradGradGradGradGradGradGradGradGradGradGradGradGradGrad
 Berny optimization.
 Using GEDIIS/GDIIS optimizer.
 Internal  Forces:  Max     0.007796652 RMS     0.001683607
 Search for a local minimum.
 Step number   2 out of a maximum of  125
 All quantities printed in internal units (Hartrees-Bohrs-Radians)
 Mixed Optimization -- RFO/linear search
 Update second derivatives using D2CorX and points    1    2
 DE= -1.08D-02 DEPred=-1.26D-02 R= 8.60D-01
 SS=  1.41D+00  RLast= 4.62D-01 DXNew= 5.0454D-01 1.3871D+00
 Trust test= 8.60D-01 RLast= 4.62D-01 DXMaxT set to 5.05D-01
 ITU=  1  0
 Use linear search instead of GDIIS.
     Eigenvalues ---    0.00235   0.00287   0.00383   0.00400   0.00476
     Eigenvalues ---    0.00542   0.01315   0.01360   0.01374   0.01382
     Eigenvalues ---    0.01485   0.04131   0.04375   0.04593   0.04714
     Eigenvalues ---    0.05157   0.05302   0.05391   0.05892   0.06131
     Eigenvalues ---    0.07161   0.07357   0.07421   0.08055   0.11023
     Eigenvalues ---    0.11902   0.13579   0.14204   0.15831   0.16000
     Eigenvalues ---    0.16000   0.16000   0.16024   0.16819   0.16949
     Eigenvalues ---    0.18169   0.19819   0.20137   0.20286   0.22012
     Eigenvalues ---    0.23532   0.24942   0.25021   0.28517   0.29230
     Eigenvalues ---    0.29520   0.29848   0.30810   0.34055   0.34092
     Eigenvalues ---    0.34181   0.34216   0.34398   0.34474   0.34518
     Eigenvalues ---    0.41381   0.41645   0.41942   0.42667   0.44030
     Eigenvalues ---    0.52827   0.52881   0.52887   0.52933   0.53167
     Eigenvalues ---    0.89081
 RFO step:  Lambda=-4.41458690D-03 EMin= 2.34607902D-03
 Quartic linear search produced a step of  0.05262.
 Iteration  1 RMS(Cart)=  0.09090140 RMS(Int)=  0.00302552
 Iteration  2 RMS(Cart)=  0.00475433 RMS(Int)=  0.00008740
 Iteration  3 RMS(Cart)=  0.00002010 RMS(Int)=  0.00008635
 Iteration  4 RMS(Cart)=  0.00000000 RMS(Int)=  0.00008635
 Variable       Old X    -DE/DX   Delta X   Delta X   Delta X     New X
                                 (Linear)    (Quad)   (Total)
    R1        2.70826  -0.00007   0.00085   0.00091   0.00177   2.71002
    R2        1.82682   0.00113  -0.00052   0.00150   0.00098   1.82781
    R3        2.69641  -0.00237  -0.00005  -0.00588  -0.00593   2.69048
    R4        1.83529   0.00095  -0.00012   0.00166   0.00154   1.83683
    R5        2.68359  -0.00780  -0.00021  -0.01908  -0.01929   2.66430
    R6        1.83498   0.00152  -0.00017   0.00271   0.00254   1.83752
    R7        2.69608  -0.00539   0.00027  -0.01273  -0.01246   2.68362
    R8        1.83098   0.00039  -0.00034   0.00031  -0.00004   1.83094
    R9        2.29166  -0.00126  -0.00192  -0.00392  -0.00584   2.28582
   R10        2.67223  -0.00589   0.00006  -0.01370  -0.01364   2.65859
   R11        1.83093   0.00122  -0.00036   0.00189   0.00153   1.83246
   R12        2.90932   0.00194  -0.00006   0.00680   0.00674   2.91606
   R13        2.88795   0.00603  -0.00080   0.02014   0.01935   2.90729
   R14        2.09246  -0.00174   0.00095  -0.00399  -0.00303   2.08943
   R15        2.89044  -0.00008   0.00006  -0.00020  -0.00015   2.89029
   R16        2.06325   0.00022  -0.00039   0.00016  -0.00023   2.06302
   R17        2.91443  -0.00028   0.00145   0.00090   0.00236   2.91678
   R18        2.07117   0.00042   0.00007   0.00135   0.00143   2.07259
   R19        2.08036   0.00007   0.00074   0.00116   0.00190   2.08226
   R20        2.08786   0.00117   0.00097   0.00470   0.00568   2.09354
   R21        2.89618  -0.00054   0.00158   0.00024   0.00182   2.89801
   R22        2.07077   0.00091   0.00028   0.00303   0.00331   2.07408
   R23        2.08258   0.00090   0.00098   0.00389   0.00487   2.08746
    A1        1.89432   0.00245   0.00053   0.01596   0.01649   1.91081
    A2        1.87691   0.00169  -0.00034   0.01016   0.00982   1.88673
    A3        1.85196   0.00067  -0.00152   0.00231   0.00079   1.85275
    A4        1.87480   0.00109   0.00035   0.00724   0.00759   1.88239
    A5        1.87094   0.00101  -0.00028   0.00599   0.00571   1.87666
    A6        1.96468  -0.00016   0.00246  -0.00084   0.00115   1.96583
    A7        1.84384   0.00014  -0.00444  -0.00663  -0.01110   1.83274
    A8        1.92523  -0.00007   0.00358   0.00397   0.00758   1.93281
    A9        1.94839  -0.00051  -0.00354  -0.00764  -0.01125   1.93714
   A10        1.87676   0.00019  -0.00003   0.00232   0.00227   1.87903
   A11        1.90486   0.00041   0.00241   0.00923   0.01174   1.91661
   A12        1.92458  -0.00095   0.00031  -0.00481  -0.00463   1.91995
   A13        1.94014   0.00054   0.00293   0.00986   0.01277   1.95291
   A14        1.83729   0.00043  -0.00194   0.00262   0.00058   1.83787
   A15        1.95419   0.00075   0.00011   0.00344   0.00350   1.95769
   A16        1.90589  -0.00083  -0.00140  -0.01383  -0.01525   1.89064
   A17        1.89763   0.00002  -0.00010   0.00225   0.00214   1.89977
   A18        1.94474   0.00075   0.00290  -0.00022   0.00254   1.94728
   A19        1.94249  -0.00252   0.00291  -0.01936  -0.01649   1.92599
   A20        1.84090   0.00092  -0.00139   0.01198   0.01068   1.85158
   A21        1.95769   0.00054  -0.00305  -0.00755  -0.01078   1.94691
   A22        1.87896  -0.00064  -0.00263   0.00073  -0.00188   1.87707
   A23        1.89340   0.00107   0.00125   0.01706   0.01825   1.91165
   A24        1.87683   0.00231  -0.00118   0.01181   0.01064   1.88747
   A25        1.92929   0.00055   0.00265   0.01127   0.01397   1.94326
   A26        1.94091  -0.00084   0.00320   0.00468   0.00780   1.94872
   A27        1.92336  -0.00231  -0.00154  -0.01930  -0.02092   1.90244
   A28        1.90135   0.00048  -0.00201   0.00241   0.00025   1.90160
   A29        1.89212  -0.00022  -0.00099  -0.01114  -0.01245   1.87966
   A30        2.11305   0.00015  -0.00046   0.00003  -0.00045   2.11261
   A31        2.11164  -0.00116  -0.00033  -0.00511  -0.00545   2.10620
   A32        2.05847   0.00101   0.00081   0.00510   0.00591   2.06437
   A33        1.98481  -0.00506   0.00304  -0.01853  -0.01550   1.96931
   A34        1.84438   0.00211  -0.00266   0.01249   0.00990   1.85428
   A35        1.95802   0.00154   0.00337   0.00751   0.01082   1.96884
   A36        1.90344   0.00179   0.00001   0.01244   0.01252   1.91595
   A37        1.89350   0.00129  -0.00173  -0.00038  -0.00222   1.89128
   A38        1.87570  -0.00149  -0.00223  -0.01287  -0.01511   1.86059
    D1       -1.37430   0.00042  -0.00291   0.03092   0.02790  -1.34640
    D2        2.77831   0.00104   0.00307   0.04526   0.04832   2.82663
    D3        0.72195   0.00051   0.00070   0.03607   0.03689   0.75884
    D4       -1.08980  -0.00179  -0.00327  -0.07651  -0.07979  -1.16959
    D5        1.08819  -0.00112  -0.00095  -0.06849  -0.06942   1.01877
    D6        3.13984  -0.00057  -0.00063  -0.05927  -0.05992   3.07992
    D7       -1.07683  -0.00169  -0.00450  -0.10029  -0.10486  -1.18169
    D8        1.12254  -0.00235  -0.00430  -0.12530  -0.12947   0.99307
    D9       -3.11073  -0.00184  -0.00212  -0.10796  -0.11014   3.06231
   D10       -3.14078  -0.00102  -0.00028  -0.01658  -0.01686   3.12554
   D11        1.04211   0.00004   0.00073  -0.00699  -0.00622   1.03589
   D12       -1.06054   0.00051  -0.00155  -0.00360  -0.00519  -1.06573
   D13       -1.08670   0.00302   0.00298   0.13769   0.14057  -0.94613
   D14        3.10928   0.00230   0.00289   0.12465   0.12756  -3.04635
   D15        1.07041   0.00202   0.00528   0.12869   0.13404   1.20445
   D16       -3.10880   0.00004   0.00626  -0.04366  -0.03740   3.13699
   D17        1.00445  -0.00050   0.00222  -0.05538  -0.05310   0.95135
   D18       -1.09807  -0.00045   0.00324  -0.05110  -0.04780  -1.14587
   D19       -1.03849  -0.00024  -0.00032  -0.05798  -0.05838  -1.09687
   D20        3.07476  -0.00077  -0.00435  -0.06970  -0.07408   3.00068
   D21        0.97224  -0.00072  -0.00333  -0.06542  -0.06878   0.90346
   D22        1.05037   0.00009   0.00052  -0.04969  -0.04920   1.00117
   D23       -1.11956  -0.00044  -0.00352  -0.06141  -0.06490  -1.18446
   D24        3.06110  -0.00040  -0.00249  -0.05713  -0.05960   3.00150
   D25        1.12452  -0.00168  -0.00112  -0.06429  -0.06525   1.05927
   D26       -1.06644   0.00067  -0.00495  -0.03258  -0.03730  -1.10374
   D27        3.13507  -0.00055  -0.00266  -0.04959  -0.05215   3.08293
   D28       -1.01649  -0.00128   0.00146  -0.05446  -0.05317  -1.06966
   D29        3.07573   0.00107  -0.00237  -0.02274  -0.02522   3.05052
   D30        0.99406  -0.00015  -0.00008  -0.03976  -0.04007   0.95399
   D31       -3.08869  -0.00147   0.00203  -0.05858  -0.05654   3.13795
   D32        1.00353   0.00088  -0.00180  -0.02686  -0.02859   0.97494
   D33       -1.07814  -0.00034   0.00049  -0.04387  -0.04344  -1.12158
   D34        1.03429   0.00042  -0.00098   0.01357   0.01261   1.04690
   D35        3.13833   0.00115   0.00060   0.02324   0.02372  -3.12113
   D36       -1.07108  -0.00020  -0.00298  -0.00034  -0.00329  -1.07437
   D37       -3.08766   0.00013   0.00154   0.01717   0.01879  -3.06887
   D38       -0.98362   0.00086   0.00313   0.02684   0.02991  -0.95372
   D39        1.09015  -0.00049  -0.00046   0.00325   0.00289   1.09304
   D40       -0.98034  -0.00042  -0.00022   0.00357   0.00337  -0.97697
   D41        1.12370   0.00031   0.00136   0.01323   0.01449   1.13819
   D42       -3.08571  -0.00104  -0.00222  -0.01035  -0.01253  -3.09824
   D43       -0.10256  -0.00008  -0.00284  -0.03338  -0.03628  -0.13883
   D44        3.04574  -0.00010  -0.00111  -0.03709  -0.03827   3.00747
   D45        2.08964  -0.00064   0.00100  -0.05459  -0.05349   2.03614
   D46       -1.04525  -0.00066   0.00272  -0.05830  -0.05549  -1.10074
   D47       -2.12036  -0.00041  -0.00340  -0.04719  -0.05062  -2.17099
   D48        1.02794  -0.00044  -0.00168  -0.05090  -0.05262   0.97532
   D49        0.07538   0.00069   0.00552   0.11363   0.11918   0.19457
   D50        2.12874   0.00143   0.00409   0.12626   0.13033   2.25906
   D51       -2.11641   0.00134   0.00037   0.11753   0.11791  -1.99851
[...]
    24  H    2.275835   1.909598   4.542540   6.331912   4.254280
                   16         17         18         19         20
    16  H    0.000000
    17  H    1.793789   0.000000
    18  H    2.334285   2.785633   0.000000
    19  H    6.134859   5.445968   4.549116   0.000000
    20  H    5.192808   4.706107   3.214852   1.769058   0.000000
    21  H    3.450438   2.811202   4.545989   5.531436   5.624286
    22  H    4.968197   5.559508   3.997556   4.291248   4.196818
    23  H    2.417534   2.287132   4.561700   7.463049   6.880024
    24  H    7.106431   7.019376   5.037365   2.723863   2.620037
                   21         22         23         24
    21  H    0.000000
    22  H    5.095158   0.000000
    23  H    2.981154   6.721882   0.000000
    24  H    7.426228   4.049000   9.006954   0.000000
 Stoichiometry    C6H12O6
 Framework group  C1[X(C6H12O6)]
 Deg. of freedom    66
 Full point group                 C1      NOp   1
 Largest Abelian subgroup         C1      NOp   1
 Largest concise Abelian subgroup C1      NOp   1
                         Standard orientation:                         
 ---------------------------------------------------------------------
 Center     Atomic      Atomic             Coordinates (Angstroms)
 Number     Number       Type             X           Y           Z
 ---------------------------------------------------------------------
      1          8           0       -0.133025   -0.504029   -1.506708
      2          8           0       -2.018933    0.229531    1.531203
      3          8           0        0.384420    2.011667   -0.172572
      4          8           0       -4.159651   -0.233920   -0.054994
      5          8           0        2.761986    0.981069   -0.601521
      6          8           0        3.915544   -1.205515    0.338257
      7          6           0       -0.413327   -0.299547   -0.122498
      8          6           0       -1.848760    0.181034    0.120339
      9          6           0        0.606218    0.741884    0.386198
     10          6           0       -2.899380   -0.747377   -0.485534
     11          6           0        2.028877    0.279244    0.078152
     12          6           0        2.547625   -1.050447    0.600409
     13          1           0       -0.271256   -1.228841    0.452714
     14          1           0       -1.962647    1.177610   -0.327515
     15          1           0        0.482875    0.804056    1.477107
     16          1           0       -2.826476   -0.748710   -1.582916
     17          1           0       -2.745525   -1.773418   -0.112847
     18          1           0       -0.572500   -1.317461   -1.795053
     19          1           0        2.354409   -1.118693    1.681749
     20          1           0        1.954198   -1.848096    0.120542
     21          1           0       -2.968184    0.386862    1.672222
     22          1           0        1.121522    2.162313   -0.794094
     23          1           0       -4.847089   -0.883473   -0.262525
     24          1           0        4.150430   -0.471321   -0.261096
 ---------------------------------------------------------------------
 Rotational constants (GHZ):      1.9169034      0.4304282      0.4123096

 **********************************************************************

            Population analysis using the SCF density.

 **********************************************************************

 Orbital symmetries:
       Occupied  (A) (A) (A) (A) (A) (A) (A) (A) (A) (A) (A) (A)
                 (A) (A) (A) (A) (A) (A) (A) (A) (A) (A) (A) (A)
                 (A) (A) (A) (A) (A) (A) (A) (A) (A) (A) (A) (A)
                 (A) (A) (A) (A) (A) (A) (A) (A) (A) (A) (A) (A)
       Virtual   (A) (A) (A) (A) (A) (A) (A) (A) (A) (A) (A) (A)
                 (A) (A) (A) (A) (A) (A) (A) (A) (A) (A) (A) (A)
                 (A) (A) (A) (A) (A) (A) (A) (A) (A) (A) (A) (A)
                 (A) (A) (A) (A) (A) (A) (A) (A) (A) (A) (A) (A)
                 (A) (A) (A) (A) (A) (A) (A) (A) (A) (A) (A) (A)
                 (A) (A) (A) (A) (A) (A) (A) (A) (A) (A) (A) (A)
                 (A) (A) (A) (A) (A) (A) (A) (A) (A) (A) (A) (A)
                 (A) (A) (A) (A) (A) (A) (A) (A) (A) (A) (A) (A)
                 (A) (A) (A) (A) (A) (A) (A) (A) (A) (A) (A) (A)
                 (A) (A) (A) (A) (A) (A) (A) (A) (A) (A) (A) (A)
                 (A) (A) (A) (A) (A) (A) (A) (A) (A) (A) (A) (A)
                 (A) (A) (A) (A) (A) (A) (A) (A) (A) (A) (A) (A)
                 (A) (A) (A) (A) (A) (A) (A) (A) (A) (A) (A) (A)
 The electronic state is 1-A.
 Alpha  occ. eigenvalues --  -19.17317 -19.16964 -19.16854 -19.14663 -19.14382
 Alpha  occ. eigenvalues --  -19.14371 -10.29496 -10.25562 -10.25169 -10.24994
 Alpha  occ. eigenvalues --  -10.24903 -10.23920  -1.08068  -1.05008  -1.04142
 Alpha  occ. eigenvalues --   -1.02289  -1.01482  -1.01108  -0.78985  -0.75592
 Alpha  occ. eigenvalues --   -0.71298  -0.65525  -0.59640  -0.56994  -0.56159
 Alpha  occ. eigenvalues --   -0.53818  -0.53008  -0.50040  -0.49399  -0.48226
 Alpha  occ. eigenvalues --   -0.47974  -0.45233  -0.44073  -0.42808  -0.42478
 Alpha  occ. eigenvalues --   -0.41062  -0.38167  -0.37040  -0.36771  -0.35967
 Alpha  occ. eigenvalues --   -0.34448  -0.33780  -0.29814  -0.29334  -0.28372
 Alpha  occ. eigenvalues --   -0.27452  -0.27208  -0.26583
 Alpha virt. eigenvalues --   -0.03517   0.03632   0.05150   0.08758   0.09916
 Alpha virt. eigenvalues --    0.11107   0.12569   0.13524   0.14493   0.15224
 Alpha virt. eigenvalues --    0.15833   0.16830   0.17036   0.18225   0.20142
 Alpha virt. eigenvalues --    0.20815   0.22043   0.23538   0.24365   0.27369
 Alpha virt. eigenvalues --    0.28173   0.30943   0.34750   0.37394   0.52398
 Alpha virt. eigenvalues --    0.52912   0.53369   0.54463   0.55754   0.56949
 Alpha virt. eigenvalues --    0.58728   0.60818   0.62043   0.63086   0.67067
 Alpha virt. eigenvalues --    0.67814   0.68165   0.70463   0.72191   0.73548
 Alpha virt. eigenvalues --    0.75548   0.78417   0.79049   0.80058   0.80396
 Alpha virt. eigenvalues --    0.81784   0.82638   0.84170   0.84908   0.86342
 Alpha virt. eigenvalues --    0.86848   0.88328   0.89833   0.90593   0.92117
 Alpha virt. eigenvalues --    0.95371   0.96426   0.97043   0.98042   0.99737
 Alpha virt. eigenvalues --    1.01050   1.01623   1.02785   1.04888   1.06210
 Alpha virt. eigenvalues --    1.09868   1.12293   1.13927   1.14723   1.15817
 Alpha virt. eigenvalues --    1.18772   1.21269   1.24183   1.28822   1.30206
 Alpha virt. eigenvalues --    1.32127   1.35186   1.36032   1.36919   1.42845
 Alpha virt. eigenvalues --    1.46952   1.49673   1.53498   1.56739   1.59492
 Alpha virt. eigenvalues --    1.61480   1.64394   1.65485   1.67546   1.70456
 Alpha virt. eigenvalues --    1.71269   1.72130   1.72927   1.75024   1.77463
 Alpha virt. eigenvalues --    1.77722   1.79711   1.80894   1.82745   1.84501
 Alpha virt. eigenvalues --    1.88164   1.90903   1.91601   1.93693   1.96778
 Alpha virt. eigenvalues --    1.97446   2.00193   2.03694   2.05927   2.07617
 Alpha virt. eigenvalues --    2.08752   2.10553   2.14435   2.14970   2.17552
 Alpha virt. eigenvalues --    2.18937   2.24740   2.26797   2.28443   2.32567
 Alpha virt. eigenvalues --    2.34427   2.37391   2.37919   2.39506   2.44180
 Alpha virt. eigenvalues --    2.46218   2.47537   2.50128   2.51315   2.52668
 Alpha virt. eigenvalues --    2.56024   2.58020   2.61690   2.62991   2.69285
 Alpha virt. eigenvalues --    2.77643   2.79859   2.86971   2.88017   2.91035
 Alpha virt. eigenvalues --    2.95368   2.97327   2.99775   3.04901   3.70343
 Alpha virt. eigenvalues --    3.77874   3.80415   3.83587   3.87905   4.10136
 Alpha virt. eigenvalues --    4.20151   4.27490   4.38236   4.47053   4.51251
 Alpha virt. eigenvalues --    4.65651
          Condensed to atoms (all electrons):
              1          2          3          4          5          6
     1  O    8.293359   0.001397   0.002314   0.000057  -0.000712   0.000002
     2  O    0.001397   8.314883  -0.000032  -0.007161   0.000000   0.000000
     3  O    0.002314  -0.000032   8.242278   0.000000  -0.015229  -0.000011
     4  O    0.000057  -0.007161   0.000000   8.251873   0.000000   0.000000
     5  O   -0.000712   0.000000  -0.015229   0.000000   8.042897  -0.015451
     6  O    0.000002   0.000000  -0.000011   0.000000  -0.015451   8.203693
     7  C    0.209763  -0.043785  -0.059814   0.002259  -0.001430  -0.000049
     8  C   -0.042916   0.202741  -0.007817  -0.049746  -0.000084   0.000000
     9  C   -0.054119   0.000825   0.278517  -0.000028  -0.069336   0.002259
    10  C   -0.000306  -0.034626   0.000143   0.244189   0.000000   0.000000
    11  C    0.009270   0.000144  -0.023538   0.000000   0.532419  -0.020483
    12  C   -0.002644  -0.000004   0.002239   0.000000  -0.081109   0.300885
    13  H   -0.034872   0.007100   0.003574  -0.000067   0.000032   0.000016
    14  H    0.002541  -0.037374   0.014888   0.001032   0.000002   0.000000
    15  H    0.003177   0.009295  -0.038983  -0.000001   0.000671  -0.000017
    16  H    0.007639   0.004186   0.000008  -0.037510   0.000000   0.000000
    17  H   -0.000144   0.000115  -0.000003  -0.037995   0.000000   0.000000
    18  H    0.234638   0.000020  -0.000108  -0.000035   0.000005  -0.000001
    19  H    0.000158   0.000000  -0.000003   0.000000   0.001361  -0.042987
    20  H    0.003557  -0.000009  -0.000024   0.000000  -0.000806  -0.041479
    21  H   -0.000112   0.233750  -0.000020   0.027732   0.000000   0.000000
    22  H    0.001311  -0.000017   0.237235   0.000000   0.040021   0.000003
    23  H    0.000006   0.000339   0.000000   0.236928   0.000000   0.000000
    24  H    0.000000   0.000000   0.000004   0.000000   0.039918   0.239594
              7          8          9         10         11         12
     1  O    0.209763  -0.042916  -0.054119  -0.000306   0.009270  -0.002644
     2  O   -0.043785   0.202741   0.000825  -0.034626   0.000144  -0.000004
     3  O   -0.059814  -0.007817   0.278517   0.000143  -0.023538   0.002239
     4  O    0.002259  -0.049746  -0.000028   0.244189   0.000000   0.000000
     5  O   -0.001430  -0.000084  -0.069336   0.000000   0.532419  -0.081109
     6  O   -0.000049   0.000000   0.002259   0.000000  -0.020483   0.300885
     7  C    5.034611   0.330240   0.284721  -0.032981  -0.030514   0.006852
     8  C    0.330240   4.923405  -0.037273   0.339486   0.004437  -0.000315
     9  C    0.284721  -0.037273   5.085542   0.005145   0.257888  -0.096632
    10  C   -0.032981   0.339486   0.005145   4.964909  -0.000027   0.000006
    11  C   -0.030514   0.004437   0.257888  -0.000027   4.699852   0.288089
    12  C    0.006852  -0.000315  -0.096632   0.000006   0.288089   5.012484
    13  H    0.327011  -0.054025  -0.036140  -0.010058  -0.008734   0.003778
    14  H   -0.041004   0.358193  -0.015338  -0.054813   0.000054  -0.000011
    15  H   -0.062985  -0.007167   0.369332   0.000360  -0.036694   0.001001
    16  H   -0.003496  -0.032839  -0.000298   0.333944  -0.000006   0.000000
    17  H   -0.003349  -0.033203  -0.000132   0.341175  -0.000005   0.000000
    18  H   -0.022000  -0.003977   0.006951   0.004235   0.000006   0.000063
    19  H   -0.001789  -0.000063   0.004968   0.000000  -0.029209   0.351981
    20  H    0.002052   0.000477  -0.000743  -0.000016  -0.030348   0.344222
    21  H    0.006589  -0.028800  -0.000186  -0.012648   0.000003   0.000000
    22  H    0.001503  -0.000173  -0.053702  -0.000006  -0.009809   0.002477
    23  H   -0.000230   0.005807   0.000003  -0.021600   0.000000   0.000000
    24  H   -0.000046   0.000001   0.002576   0.000000  -0.006587  -0.061370
             13         14         15         16         17         18
     1  O   -0.034872   0.002541   0.003177   0.007639  -0.000144   0.234638
     2  O    0.007100  -0.037374   0.009295   0.004186   0.000115   0.000020
     3  O    0.003574   0.014888  -0.038983   0.000008  -0.000003  -0.000108
     4  O   -0.000067   0.001032  -0.000001  -0.037510  -0.037995  -0.000035
     5  O    0.000032   0.000002   0.000671   0.000000   0.000000   0.000005
     6  O    0.000016   0.000000  -0.000017   0.000000   0.000000  -0.000001
     7  C    0.327011  -0.041004  -0.062985  -0.003496  -0.003349  -0.022000
     8  C   -0.054025   0.358193  -0.007167  -0.032839  -0.033203  -0.003977
     9  C   -0.036140  -0.015338   0.369332  -0.000298  -0.000132   0.006951
    10  C   -0.010058  -0.054813   0.000360   0.333944   0.341175   0.004235
    11  C   -0.008734   0.000054  -0.036694  -0.000006  -0.000005   0.000006
    12  C    0.003778  -0.000011   0.001001   0.000000   0.000000   0.000063
    13  H    0.665970   0.007645   0.004448   0.000844   0.006762  -0.007859
    14  H    0.007645   0.593169   0.000892  -0.001237   0.006943  -0.000349
    15  H    0.004448   0.000892   0.568767  -0.000011  -0.000010  -0.000246
    16  H    0.000844  -0.001237  -0.000011   0.650687  -0.052288   0.002206
    17  H    0.006762   0.006943  -0.000010  -0.052288   0.657827   0.000136
    18  H   -0.007859  -0.000349  -0.000246   0.002206   0.000136   0.383955
    19  H    0.000046   0.000000   0.001806   0.000000   0.000000  -0.000004
    20  H    0.000234   0.000000   0.000279  -0.000002  -0.000004  -0.000008
    21  H   -0.000272  -0.001438  -0.000214   0.000797  -0.000360   0.000005
    22  H   -0.000098  -0.000223   0.006403   0.000001   0.000000  -0.000016
    23  H    0.000001  -0.000224   0.000000  -0.001318  -0.005973   0.000001
    24  H   -0.000003   0.000000  -0.000054   0.000000   0.000000   0.000001
             19         20         21         22         23         24
     1  O    0.000158   0.003557  -0.000112   0.001311   0.000006   0.000000
     2  O    0.000000  -0.000009   0.233750  -0.000017   0.000339   0.000000
     3  O   -0.000003  -0.000024  -0.000020   0.237235   0.000000   0.000004
     4  O    0.000000   0.000000   0.027732   0.000000   0.236928   0.000000
     5  O    0.001361  -0.000806   0.000000   0.040021   0.000000   0.039918
     6  O   -0.042987  -0.041479   0.000000   0.000003   0.000000   0.239594
     7  C   -0.001789   0.002052   0.006589   0.001503  -0.000230  -0.000046
     8  C   -0.000063   0.000477  -0.028800  -0.000173   0.005807   0.000001
     9  C    0.004968  -0.000743  -0.000186  -0.053702   0.000003   0.002576
    10  C    0.000000  -0.000016  -0.012648  -0.000006  -0.021600   0.000000
    11  C   -0.029209  -0.030348   0.000003  -0.009809   0.000000  -0.006587
    12  C    0.351981   0.344222   0.000000   0.002477   0.000000  -0.061370
    13  H    0.000046   0.000234  -0.000272  -0.000098   0.000001  -0.000003
    14  H    0.000000   0.000000  -0.001438  -0.000223  -0.000224   0.000000
    15  H    0.001806   0.000279  -0.000214   0.006403   0.000000  -0.000054
    16  H    0.000000  -0.000002   0.000797   0.000001  -0.001318   0.000000
    17  H    0.000000  -0.000004  -0.000360   0.000000  -0.005973   0.000000
    18  H   -0.000004  -0.000008   0.000005  -0.000016   0.000001   0.000001
    19  H    0.598590  -0.052414   0.000000  -0.000038   0.000000   0.005806
    20  H   -0.052414   0.612005   0.000001  -0.000062   0.000000   0.003924
    21  H    0.000000   0.000001   0.362987   0.000002  -0.001203   0.000000
    22  H   -0.000038  -0.000062   0.000002   0.359188   0.000000  -0.000155
    23  H    0.000000   0.000000  -0.001203   0.000000   0.383068   0.000000
    24  H    0.005806   0.003924   0.000000  -0.000155   0.000000   0.364660
 Mulliken atomic charges:
              1
     1  O   -0.633364
     2  O   -0.651786
     3  O   -0.635620
     4  O   -0.631526
     5  O   -0.473169
     6  O   -0.625974
     7  C    0.097871
     8  C    0.133610
     9  C    0.065198
    10  C   -0.066511
    11  C    0.403792
    12  C   -0.071993
    13  H    0.124665
    14  H    0.166653
    15  H    0.179950
    16  H    0.128692
    17  H    0.120508
    18  H    0.402383
    19  H    0.161788
    20  H    0.159164
    21  H    0.413389
    22  H    0.416154
    23  H    0.404395
    24  H    0.411730
 Sum of Mulliken atomic charges =   0.00000
 Mulliken charges with hydrogens summed into heavy atoms:
              1
     1  O   -0.230980
     2  O   -0.238396
     3  O   -0.219466
     4  O   -0.227131
     5  O   -0.473169
     6  O   -0.214245
     7  C    0.222537
     8  C    0.300262
     9  C    0.245148
    10  C    0.182688
    11  C    0.403792
    12  C    0.248960
 Sum of Mulliken charges with hydrogens summed into heavy atoms =   0.00000
 Electronic spatial extent (au):  <R**2>=           2737.8370
 Charge=              0.0000 electrons
 Dipole moment (field-independent basis, Debye):
    X=             -3.9074    Y=             -3.2596    Z=             -0.7477  Tot=              5.1431
 Quadrupole moment (field-independent basis, Debye-Ang):
   XX=            -68.8566   YY=            -71.1625   ZZ=            -70.3190
   XY=             11.3197   XZ=              2.5417   YZ=              3.1190
 Traceless Quadrupole moment (field-independent basis, Debye-Ang):
   XX=              1.2561   YY=             -1.0498   ZZ=             -0.2063
   XY=             11.3197   XZ=              2.5417   YZ=              3.1190
 Octapole moment (field-independent basis, Debye-Ang**2):
  XXX=           -108.2705  YYY=             -4.6729  ZZZ=             -3.8189  XYY=            -18.9810
  XXY=             -7.8748  XXZ=            -13.6878  XZZ=             -3.3327  YZZ=             -1.2964
  YYZ=             -9.7730  XYZ=             -3.8951
 Hexadecapole moment (field-independent basis, Debye-Ang**3):
 XXXX=          -2291.4828 YYYY=           -438.5429 ZZZZ=           -298.8902 XXXY=            243.0786
 XXXZ=            -57.1757 YYYX=             33.6897 YYYZ=             -3.6609 ZZZX=             -8.2700
 ZZZY=             10.6458 XXYY=           -501.8270 XXZZ=           -445.5886 YYZZ=           -109.2778
 XXYZ=             42.0535 YYXZ=             -5.1479 ZZXY=              2.7509
 N-N= 7.842484944943D+02 E-N=-3.179780115286D+03  KE= 6.812634902927D+02

 Test job not archived.
 1\1\GINC-TERMINUS\FOpt\RB3LYP\6-31G(d)\C6H12O6\FRODOX\04-Jan-2018\0\\#
 B3LYP/6-31G* fopt test\\Sugars/D_-_Fructuose.xyz\\0,1\O,-0.2478078021,
 0.4677473036,1.5825796029\O,-2.0179282242,0.0543010104,-1.5827635161\O
 ,0.3188824405,-1.901562809,0.0200083325\O,-4.2168512268,0.3630981644,-
 0.0391128268\O,2.6788679458,-0.9296833076,0.6403857792\O,3.8677176847,
 1.3362563124,-0.0283311182\C,-0.4757253339,0.4060604366,0.1752176988\C
 ,-1.9011121598,-0.0414423246,-0.1688915606\C,0.5619854531,-0.582524017
 ,-0.398086939\C,-2.9735776957,0.8249670605,0.4883642525\C,1.9721407016
 ,-0.1594389827,0.008544226\C,2.5106222789,1.2142637893,-0.3560230091\H
 ,-0.3117714819,1.3883728532,-0.2968228603\H,-2.0321151794,-1.077869829
 3,0.1707589506\H,0.4798862349,-0.5330726913,-1.4935208753\H,-2.9421429
 757,0.7145435237,1.5821567328\H,-2.8054637958,1.882908287,0.2279330131
 \H,-0.6976124017,1.249497422,1.9354182703\H,2.3583771866,1.3927734334,
 -1.4313096208\H,1.8997410552,1.9614963625,0.1798306542\H,-2.9612266247
 ,-0.083973556,-1.7745576771\H,1.0319562707,-2.1175933005,0.6502145779\
 H,-4.9114414929,0.9910496327,0.2074275245\H,4.0795991425,0.5440252262,
 0.5016803879\\Version=EM64L-G09RevB.01\State=1-A\HF=-687.1358755\RMSD=
 3.405e-09\RMSF=6.539e-06\Dipole=-1.5469341,1.2522381,0.3650914\Quadrup
 ole=1.0698835,-1.175018,0.1051345,-8.2666818,-2.6969579,1.9101523\PG=C
 01 [X(C6H12O6)]\\@


 I do not feel obliged to believe that the same God who
 has endowed us with sense, reason, and intellect has
 intended us to forgo their use.
                   --Galileo Galilei
 Job cpu time:  0 days  0 hours 32 minutes 48.1 seconds.
 File lengths (MBytes):  RWF=     27 Int=      0 D2E=      0 Chk=      4 Scr=      1
 Normal termination of Gaussian 09 at Thu Jan  4 15:46:01 2018.
