 Entering Gaussian System, Link 0=g09
 Input=S-R-R-Fructuose.inp
 Output=S-R-R-Fructuose.log
 Initial command:
 /usr/local/g09/l1.exe /home/g09scr/Gau-6799.inp -scrdir=/home/g09scr/
 Entering Link 1 = /usr/local/g09/l1.exe PID=      6801.
  
 Copyright (c) 1988,1990,1992,1993,1995,1998,2003,2009,2010,
            Gaussian, Inc.  All Rights Reserved.
  
 This is part of the Gaussian(R) 09 program.  It is based on
 the Gaussian(R) 03 system (copyright 2003, Gaussian, Inc.),
 the Gaussian(R) 98 system (copyright 1998, Gaussian, Inc.),
 the Gaussian(R) 94 system (copyright 1995, Gaussian, Inc.),
 the Gaussian 92(TM) system (copyright 1992, Gaussian, Inc.),
 the Gaussian 90(TM) system (copyright 1990, Gaussian, Inc.),
 the Gaussian 88(TM) system (copyright 1988, Gaussian, Inc.),
 the Gaussian 86(TM) system (copyright 1986, Carnegie Mellon
 University), and the Gaussian 82(TM) system (copyright 1983,
 Carnegie Mellon University). Gaussian is a federally registered
 trademark of Gaussian, Inc.
  
 This software contains proprietary and confidential information,
 including trade secrets, belonging to Gaussian, Inc.
  
 This software is provided under written license and may be
 used, copied, transmitted, or stored only in accord with that
 written license.
  
 The following legend is applicable only to US Government
 contracts under FAR:
  
                    RESTRICTED RIGHTS LEGEND
  
 Use, reproduction and disclosure by the US Government is
 subject to restrictions as set forth in subparagraphs (a)
 and (c) of the Commercial Computer Software - Restricted
 Rights clause in FAR 52.227-19.
  
 Gaussian, Inc.
 340 Quinnipiac St., Bldg. 40, Wallingford CT 06492
  
  
 ---------------------------------------------------------------
 Warning -- This program may not be used in any manner that
 competes with the business of Gaussian, Inc. or will provide
 assistance to any competitor of Gaussian, Inc.  The licensee
 of this program is prohibited from giving any competitor of
 Gaussian, Inc. access to this program.  By using this program,
 the user acknowledges that Gaussian, Inc. is engaged in the
 business of creating and licensing software in the field of
 computational chemistry and represents and warrants to the
 licensee that it is not a competitor of Gaussian, Inc. and that
 it will not use this program in any manner prohibited above.
 ---------------------------------------------------------------
  

 Cite this work as:
 Gaussian 09, Revision B.01,
 M. J. Frisch, G. W. Trucks, H. B. Schlegel, G. E. Scuseria, 
 M. A. Robb, J. R. Cheeseman, G. Scalmani, V. Barone, B. Mennucci, 
 G. A. Petersson, H. Nakatsuji, M. Caricato, X. Li, H. P. Hratchian, 
 A. F. Izmaylov, J. Bloino, G. Zheng, J. L. Sonnenberg, M. Hada, 
 M. Ehara, K. Toyota, R. Fukuda, J. Hasegawa, M. Ishida, T. Nakajima, 
 Y. Honda, O. Kitao, H. Nakai, T. Vreven, J. A. Montgomery, Jr., 
 J. E. Peralta, F. Ogliaro, M. Bearpark, J. J. Heyd, E. Brothers, 
 K. N. Kudin, V. N. Staroverov, T. Keith, R. Kobayashi, J. Normand, 
 K. Raghavachari, A. Rendell, J. C. Burant, S. S. Iyengar, J. Tomasi, 
 M. Cossi, N. Rega, J. M. Millam, M. Klene, J. E. Knox, J. B. Cross, 
 V. Bakken, C. Adamo, J. Jaramillo, R. Gomperts, R. E. Stratmann, 
 O. Yazyev, A. J. Austin, R. Cammi, C. Pomelli, J. W. Ochterski, 
 R. L. Martin, K. Morokuma, V. G. Zakrzewski, G. A. Voth, 
 P. Salvador, J. J. Dannenberg, S. Dapprich, A. D. Daniels, 
 O. Farkas, J. B. Foresman, J. V. Ortiz, J. Cioslowski, 
 and D. J. Fox, Gaussian, Inc., Wallingford CT, 2010.
 
 ******************************************
 Gaussian 09:  EM64L-G09RevB.01 12-Aug-2010
                 4-Jan-2018 
 ******************************************
 %nproc=4
 Will use up to    4 processors via shared memory.
 %mem=60gb
 -----------------------
 #B3LYP/6-31G* fopt test
 -----------------------
 1/14=-1,18=20,19=15,26=3,38=1/1,3;
 2/9=110,12=2,14=103,17=6,18=5,40=1/2;
 3/5=1,6=6,7=1,11=2,16=1,25=1,30=1,71=1,74=-5/1,2,3;
 4//1;
 5/5=2,38=5/2;
 6/7=2,8=2,9=2,10=2,28=1/1;
 7//1,2,3,16;
 1/14=-1,18=20,19=15/3(2);
 2/9=110/2;
 99//99;
 2/9=110/2;
 3/5=1,6=6,7=1,11=2,16=1,25=1,30=1,71=1,74=-5/1,2,3;
 4/5=5,16=3/1;
 5/5=2,38=5/2;
 7//1,2,3,16;
 1/14=-1,18=20,19=15/3(-5);
 2/9=110/2;
 6/7=2,8=2,9=2,10=2,19=2,28=1/1;
 99/9=1/99;
 --------------------------
 Sugars/S-R-R-Fructuose.xyz
 --------------------------
 Symbolic Z-matrix:
 Charge =  0 Multiplicity = 1
 C                     0.        0.        0. 
 O                     0.        0.        1.41352 
 H                     0.92749   0.        1.70592 
 H                     0.51803  -0.89725  -0.34815 
 H                     0.51786   0.89695  -0.34677 
 C                    -1.42147   0.       -0.52884 
 O                    -2.38889  -0.0311    0.23329 
 C                    -1.59838   0.00492  -2.04619 
 C                    -0.29803   0.04539  -2.86317 
 C                    -0.4755    0.02154  -4.39287 
 C                     0.86828   0.04202  -5.12195 
 H                     1.4567   -0.85196  -4.89019 
 H                     1.45026   0.93508  -4.87855 
 O                     0.62907   0.0516   -6.5257 
 H                     1.49772   0.05882  -6.96259 
 H                    -2.18688  -0.88181  -2.30501 
 O                    -2.38065   1.13973  -2.3969 
 H                    -3.22003   0.81821  -2.76877 
 H                     0.27509  -0.84763  -2.58217 
 O                     0.49379   1.16746  -2.48447 
 H                     1.31496   0.83388  -2.08567 
 H                    -1.05584   0.88784  -4.72949 
 O                    -1.01692  -1.23465  -4.80051 
 H                    -1.82339  -1.05983  -5.31495 
 

 GradGradGradGradGradGradGradGradGradGradGradGradGradGradGradGradGradGrad
 Berny optimization.
 Initialization pass.
                           ----------------------------
                           !    Initial Parameters    !
                           ! (Angstroms and Degrees)  !
 --------------------------                            --------------------------
 ! Name  Definition              Value          Derivative Info.                !
 --------------------------------------------------------------------------------
 ! R1    R(1,2)                  1.4135         estimate D2E/DX2                !
 ! R2    R(1,4)                  1.093          estimate D2E/DX2                !
 ! R3    R(1,5)                  1.0922         estimate D2E/DX2                !
 ! R4    R(1,6)                  1.5167         estimate D2E/DX2                !
 ! R5    R(2,3)                  0.9725         estimate D2E/DX2                !
 ! R6    R(6,7)                  1.232          estimate D2E/DX2                !
 ! R7    R(6,8)                  1.5276         estimate D2E/DX2                !
 ! R8    R(8,9)                  1.5362         estimate D2E/DX2                !
 ! R9    R(8,16)                 1.0953         estimate D2E/DX2                !
 ! R10   R(8,17)                 1.4222         estimate D2E/DX2                !
 ! R11   R(9,10)                 1.5401         estimate D2E/DX2                !
 ! R12   R(9,19)                 1.0977         estimate D2E/DX2                !
 ! R13   R(9,20)                 1.4246         estimate D2E/DX2                !
 ! R14   R(10,11)                1.529          estimate D2E/DX2                !
 ! R15   R(10,22)                1.0957         estimate D2E/DX2                !
 ! R16   R(10,23)                1.4273         estimate D2E/DX2                !
 ! R17   R(11,12)                1.0951         estimate D2E/DX2                !
 ! R18   R(11,13)                1.0934         estimate D2E/DX2                !
 ! R19   R(11,14)                1.424          estimate D2E/DX2                !
 ! R20   R(14,15)                0.9724         estimate D2E/DX2                !
 ! R21   R(17,18)                0.9727         estimate D2E/DX2                !
 ! R22   R(20,21)                0.9719         estimate D2E/DX2                !
 ! R23   R(23,24)                0.9724         estimate D2E/DX2                !
 ! A1    A(2,1,4)              108.574          estimate D2E/DX2                !
 ! A2    A(2,1,5)              108.511          estimate D2E/DX2                !
 ! A3    A(2,1,6)              110.407          estimate D2E/DX2                !
 ! A4    A(4,1,5)              110.3838         estimate D2E/DX2                !
 ! A5    A(4,1,6)              109.4597         estimate D2E/DX2                !
 ! A6    A(5,1,6)              109.4917         estimate D2E/DX2                !
 ! A7    A(1,2,3)              107.498          estimate D2E/DX2                !
 ! A8    A(1,6,7)              121.351          estimate D2E/DX2                !
 ! A9    A(1,6,8)              117.057          estimate D2E/DX2                !
 ! A10   A(7,6,8)              121.5748         estimate D2E/DX2                !
 ! A11   A(6,8,9)              115.486          estimate D2E/DX2                !
 ! A12   A(6,8,16)             107.118          estimate D2E/DX2                !
 ! A13   A(6,8,17)             108.1312         estimate D2E/DX2                !
 ! A14   A(9,8,16)             110.516          estimate D2E/DX2                !
 ! A15   A(9,8,17)             108.265          estimate D2E/DX2                !
 ! A16   A(16,8,17)            106.9882         estimate D2E/DX2                !
 ! A17   A(8,9,10)             115.484          estimate D2E/DX2                !
 ! A18   A(8,9,19)             106.5213         estimate D2E/DX2                !
 ! A19   A(8,9,20)             110.4787         estimate D2E/DX2                !
 ! A20   A(10,9,19)            107.567          estimate D2E/DX2                !
 ! A21   A(10,9,20)            109.894          estimate D2E/DX2                !
 ! A22   A(19,9,20)            106.4113         estimate D2E/DX2                !
 ! A23   A(9,10,11)            111.847          estimate D2E/DX2                !
 ! A24   A(9,10,22)            110.727          estimate D2E/DX2                !
 ! A25   A(9,10,23)            109.938          estimate D2E/DX2                !
 ! A26   A(11,10,22)           107.9636         estimate D2E/DX2                !
 ! A27   A(11,10,23)           102.0626         estimate D2E/DX2                !
 ! A28   A(22,10,23)           114.0276         estimate D2E/DX2                !
 ! A29   A(10,11,12)           111.125          estimate D2E/DX2                !
 ! A30   A(10,11,13)           111.8759         estimate D2E/DX2                !
 ! A31   A(10,11,14)           108.815          estimate D2E/DX2                !
 ! A32   A(12,11,13)           109.4922         estimate D2E/DX2                !
 ! A33   A(12,11,14)           107.7211         estimate D2E/DX2                !
 ! A34   A(13,11,14)           107.6593         estimate D2E/DX2                !
 ! A35   A(11,14,15)           107.0319         estimate D2E/DX2                !
 ! A36   A(8,17,18)            107.768          estimate D2E/DX2                !
 ! A37   A(9,20,21)            107.96           estimate D2E/DX2                !
 ! A38   A(10,23,24)           107.906          estimate D2E/DX2                !
 ! D1    D(4,1,2,3)             60.0            estimate D2E/DX2                !
 ! D2    D(5,1,2,3)            -60.0            estimate D2E/DX2                !
 ! D3    D(6,1,2,3)            180.0            estimate D2E/DX2                !
 ! D4    D(2,1,6,7)             -1.694          estimate D2E/DX2                !
 ! D5    D(2,1,6,8)            179.793          estimate D2E/DX2                !
 ! D6    D(4,1,6,7)            117.7715         estimate D2E/DX2                !
 ! D7    D(4,1,6,8)            -60.7415         estimate D2E/DX2                !
 ! D8    D(5,1,6,7)           -121.102          estimate D2E/DX2                !
 ! D9    D(5,1,6,8)             60.385          estimate D2E/DX2                !
 ! D10   D(1,6,8,9)             -1.4906         estimate D2E/DX2                !
 ! D11   D(1,6,8,16)           122.0863         estimate D2E/DX2                !
 ! D12   D(1,6,8,17)          -122.9186         estimate D2E/DX2                !
 ! D13   D(7,6,8,9)            180.0            estimate D2E/DX2                !
 ! D14   D(7,6,8,16)           -56.4232         estimate D2E/DX2                !
 ! D15   D(7,6,8,17)            58.5719         estimate D2E/DX2                !
 ! D16   D(6,8,9,10)           178.812          estimate D2E/DX2                !
 ! D17   D(6,8,9,19)            59.4631         estimate D2E/DX2                !
 ! D18   D(6,8,9,20)           -55.71           estimate D2E/DX2                !
 ! D19   D(16,8,9,10)           57.041          estimate D2E/DX2                !
 ! D20   D(16,8,9,19)          -62.3079         estimate D2E/DX2                !
 ! D21   D(16,8,9,20)         -177.481          estimate D2E/DX2                !
 ! D22   D(17,8,9,10)          -59.832          estimate D2E/DX2                !
 ! D23   D(17,8,9,19)         -179.1809         estimate D2E/DX2                !
 ! D24   D(17,8,9,20)           65.646          estimate D2E/DX2                !
 ! D25   D(6,8,17,18)         -115.0804         estimate D2E/DX2                !
 ! D26   D(9,8,17,18)          119.126          estimate D2E/DX2                !
 ! D27   D(16,8,17,18)           0.0            estimate D2E/DX2                !
 ! D28   D(8,9,10,11)         -179.087          estimate D2E/DX2                !
 ! D29   D(8,9,10,22)           60.4499         estimate D2E/DX2                !
 ! D30   D(8,9,10,23)          -66.447          estimate D2E/DX2                !
 ! D31   D(19,9,10,11)         -60.315          estimate D2E/DX2                !
 ! D32   D(19,9,10,22)         179.222          estimate D2E/DX2                !
 ! D33   D(19,9,10,23)          52.325          estimate D2E/DX2                !
 ! D34   D(20,9,10,11)          55.135          estimate D2E/DX2                !
 ! D35   D(20,9,10,22)         -65.3281         estimate D2E/DX2                !
 ! D36   D(20,9,10,23)         167.775          estimate D2E/DX2                !
 ! D37   D(8,9,20,21)          115.2421         estimate D2E/DX2                !
 ! D38   D(10,9,20,21)        -116.1799         estimate D2E/DX2                !
 ! D39   D(19,9,20,21)           0.0            estimate D2E/DX2                !
 ! D40   D(9,10,11,12)          62.961          estimate D2E/DX2                !
 ! D41   D(9,10,11,13)         -59.764          estimate D2E/DX2                !
 ! D42   D(9,10,11,14)        -178.59           estimate D2E/DX2                !
 ! D43   D(22,10,11,12)       -174.9777         estimate D2E/DX2                !
 ! D44   D(22,10,11,13)         62.2974         estimate D2E/DX2                !
 ! D45   D(22,10,11,14)        -56.5287         estimate D2E/DX2                !
 ! D46   D(23,10,11,12)        -54.514          estimate D2E/DX2                !
 ! D47   D(23,10,11,13)       -177.2389         estimate D2E/DX2                !
 ! D48   D(23,10,11,14)         63.935          estimate D2E/DX2                !
 ! D49   D(9,10,23,24)         125.0235         estimate D2E/DX2                !
 ! D50   D(11,10,23,24)       -116.1399         estimate D2E/DX2                !
 ! D51   D(22,10,23,24)          0.0            estimate D2E/DX2                !
 ! D52   D(10,11,14,15)       -179.647          estimate D2E/DX2                !
 ! D53   D(12,11,14,15)        -59.077          estimate D2E/DX2                !
 ! D54   D(13,11,14,15)         58.9155         estimate D2E/DX2                !
 --------------------------------------------------------------------------------
 Trust Radius=3.00D-01 FncErr=1.00D-07 GrdErr=1.00D-06
 Number of steps in this run=    125 maximum allowed number of steps=    144.
 GradGradGradGradGradGradGradGradGradGradGradGradGradGradGradGradGradGrad

                          Input orientation:                          
 ---------------------------------------------------------------------
 Center     Atomic      Atomic             Coordinates (Angstroms)
 Number     Number       Type             X           Y           Z
 ---------------------------------------------------------------------
      1          6           0        0.000000    0.000000    0.000000
      2          8           0        0.000000    0.000000    1.413516
      3          1           0        0.927487    0.000000    1.705916
      4          1           0        0.518025   -0.897246   -0.348146
      5          1           0        0.517855    0.896952   -0.346765
      6          6           0       -1.421472    0.000000   -0.528838
      7          8           0       -2.388894   -0.031101    0.233292
      8          6           0       -1.598381    0.004915   -2.046186
      9          6           0       -0.298033    0.045392   -2.863171
     10          6           0       -0.475503    0.021535   -4.392866
     11          6           0        0.868280    0.042020   -5.121945
     12          1           0        1.456696   -0.851959   -4.890189
     13          1           0        1.450260    0.935079   -4.878545
     14          8           0        0.629072    0.051603   -6.525700
     15          1           0        1.497715    0.058819   -6.962591
     16          1           0       -2.186879   -0.881805   -2.305009
     17          8           0       -2.380652    1.139726   -2.396895
     18          1           0       -3.220032    0.818209   -2.768774
     19          1           0        0.275090   -0.847631   -2.582168
     20          8           0        0.493788    1.167463   -2.484467
     21          1           0        1.314964    0.833878   -2.085668
     22          1           0       -1.055845    0.887837   -4.729486
     23          8           0       -1.016917   -1.234648   -4.800512
     24          1           0       -1.823387   -1.059831   -5.314954
 ---------------------------------------------------------------------
                    Distance matrix (angstroms):
                    1          2          3          4          5
     1  C    0.000000
     2  O    1.413516   0.000000
     3  H    1.941747   0.972486   0.000000
     4  H    1.092980   2.043735   2.278570   0.000000
     5  H    1.092219   2.042373   2.277240   1.794199   0.000000
     6  C    1.516658   2.406932   3.242180   2.144609   2.144449
     7  O    2.400460   2.664716   3.628770   3.088439   3.105952
     8  C    2.596483   3.811087   4.523086   2.859442   2.856959
     9  C    2.878998   4.287299   4.730805   2.807110   2.779051
    10  C    4.418579   5.825859   6.258114   4.265093   4.257235
    11  C    5.195190   6.593021   6.828247   4.877915   4.863749
    12  H    5.173176   6.525680   6.671919   4.638244   4.958106
    13  H    5.174730   6.524390   6.671041   4.975037   4.626863
    14  O    6.556154   7.964267   8.237185   6.250985   6.237485
    15  H    7.122098   8.509158   8.687441   6.754608   6.740308
    16  H    3.297436   4.403118   5.154064   3.338571   3.783422
    17  O    3.565331   4.635268   5.392200   4.092549   3.558555
    18  H    4.324833   5.341313   6.155829   4.772347   4.454675
    19  H    2.731619   4.093854   4.419476   2.247740   2.845968
    20  O    2.789153   4.098911   4.371541   2.971107   2.154884
    21  H    2.602786   3.829983   3.901487   2.578931   1.913934
    22  H    4.926571   6.295994   6.792368   4.985953   4.656700
    23  O    5.059979   6.416589   6.902077   4.721594   5.170600
    24  H    5.718104   7.051262   7.614668   5.493435   5.830379
                    6          7          8          9         10
     6  C    0.000000
     7  O    1.231956   0.000000
     8  C    1.527634   2.412929   0.000000
     9  C    2.591001   3.737062   1.536232   0.000000
    10  C    3.978195   5.006513   2.601545   1.540140   0.000000
    11  C    5.132384   6.268420   3.942853   2.542117   1.528963
    12  H    5.294437   6.458516   4.260995   2.827210   2.178007
    13  H    5.295391   6.465561   4.263997   2.812437   2.186095
    14  O    6.337961   7.402630   5.002976   3.778053   2.402076
    15  H    7.065288   8.178909   5.810314   4.475504   3.240134
    16  H    2.125608   2.684675   1.095259   2.176919   2.846749
    17  O    2.389276   2.879025   1.422231   2.398392   2.977221
    18  H    2.986904   3.228702   1.952776   3.023944   3.287066
    19  H    2.795168   3.961104   2.126971   1.097690   2.144170
    20  O    2.975849   4.139158   2.433265   1.424584   2.427893
    21  H    3.256863   4.454697   3.029244   1.956523   3.031309
    22  H    4.308988   5.220214   2.876455   2.183375   1.095714
    23  O    4.464887   5.354440   3.075862   2.430758   1.427340
    24  H    4.918504   5.671077   3.445164   3.091838   1.958670
                   11         12         13         14         15
    11  C    0.000000
    12  H    1.095054   0.000000
    13  H    1.093389   1.787088   0.000000
    14  O    1.424023   2.043595   2.041568   0.000000
    15  H    1.945366   2.264078   2.261268   0.972351   0.000000
    16  H    4.257062   4.467626   4.811750   5.158979   6.012826
    17  O    4.380230   4.990848   4.569065   5.223933   6.087337
    18  H    4.780604   5.400153   5.126053   5.433027   6.357823
    19  H    2.755689   2.592908   3.135670   4.060218   4.637302
    20  O    2.891912   3.285233   2.588523   4.194641   4.721287
    21  H    3.169471   3.275282   2.797983   4.560295   4.941507
    22  H    2.138150   3.060323   2.510978   2.600888   3.492091
    23  O    2.299384   2.504647   3.286452   2.709243   3.559637
    24  H    2.914858   3.313998   3.858352   2.952244   3.872442
                   16         17         18         19         20
    16  H    0.000000
    17  O    2.032874   0.000000
    18  H    2.042677   0.972741   0.000000
    19  H    2.477756   3.322180   3.876303   0.000000
    20  O    3.379006   2.875907   3.741025   2.029280   0.000000
    21  H    3.905712   3.721288   4.586182   2.038461   0.971931
    22  H    3.207641   2.694354   2.921121   3.064998   2.742200
    23  O    2.778641   3.643460   3.632616   2.596173   3.662845
    24  H    3.037036   3.696439   3.458422   3.452065   4.282732
                   21         22         23         24
    21  H    0.000000
    22  H    3.551538   0.000000
    23  O    4.133624   2.124030   0.000000
    24  H    4.885045   2.173776   0.972422   0.000000
 Stoichiometry    C6H12O6
 Framework group  C1[X(C6H12O6)]
 Deg. of freedom    66
 Full point group                 C1      NOp   1
 Largest Abelian subgroup         C1      NOp   1
 Largest concise Abelian subgroup C1      NOp   1
                         Standard orientation:                         
 ---------------------------------------------------------------------
 Center     Atomic      Atomic             Coordinates (Angstroms)
 Number     Number       Type             X           Y           Z
 ---------------------------------------------------------------------
      1          6           0       -2.355528   -1.033687   -0.249577
      2          8           0       -3.741821   -1.300766   -0.319484
      3          1           0       -3.851129   -2.265227   -0.379457
      4          1           0       -1.879789   -1.424054   -1.152844
      5          1           0       -1.951527   -1.527471    0.636935
      6          6           0       -2.108853    0.459701   -0.153672
      7          8           0       -3.040188    1.265851   -0.174919
      8          6           0       -0.654769    0.919539   -0.065045
      9          6           0        0.393697   -0.203153   -0.048068
     10          6           0        1.860911    0.261225    0.012495
     11          6           0        2.832259   -0.919504    0.003049
     12          1           0        2.752605   -1.488635   -0.929093
     13          1           0        2.669883   -1.587436    0.853343
     14          8           0        4.162835   -0.420326    0.093772
     15          1           0        4.757231   -1.189721    0.079954
     16          1           0       -0.478763    1.596410   -0.907933
     17          8           0       -0.504988    1.687312    1.122739
     18          1           0       -0.288267    2.598935    0.861583
     19          1           0        0.262781   -0.766652   -0.980941
     20          8           0        0.129793   -1.115544    1.013693
     21          1           0       -0.091125   -1.976683    0.620901
     22          1           0        2.046040    0.843849    0.921817
     23          8           0        2.206370    0.941335   -1.193908
     24          1           0        2.549744    1.819051   -0.954501
 ---------------------------------------------------------------------
 Rotational constants (GHZ):      1.8270279      0.4441500      0.3971447
 Standard basis: 6-31G(d) (6D, 7F)
 There are   204 symmetry adapted basis functions of A   symmetry.
 Integral buffers will be    131072 words long.
 Raffenetti 2 integral format.
 Two-electron integral symmetry is turned on.
   204 basis functions,   384 primitive gaussians,   204 cartesian basis functions
    48 alpha electrons       48 beta electrons
       nuclear repulsion energy       779.9262837514 Hartrees.
 NAtoms=   24 NActive=   24 NUniq=   24 SFac= 1.00D+00 NAtFMM=   50 NAOKFM=F Big=F
 One-electron integrals computed using PRISM.
 NBasis=   204 RedAO= T  NBF=   204
 NBsUse=   204 1.00D-06 NBFU=   204
 Harris functional with IExCor=  402 diagonalized for initial guess.
 ExpMin= 1.61D-01 ExpMax= 5.48D+03 ExpMxC= 8.25D+02 IAcc=1 IRadAn=         1 AccDes= 0.00D+00
 HarFok:  IExCor=  402 AccDes= 0.00D+00 IRadAn=         1 IDoV= 1
 ScaDFX=  1.000000  1.000000  1.000000  1.000000
 FoFCou: FMM=F IPFlag=           0 FMFlag=      100000 FMFlg1=           0
         NFxFlg=           0 DoJE=T BraDBF=F KetDBF=T FulRan=T
         Omega=  0.000000  0.000000  1.000000  0.000000  0.000000 ICntrl=     500 IOpCl=  0
         NMat0=    1 NMatS0=    1 NMatT0=    0 NMatD0=    1 NMtDS0=    0 NMtDT0=    0
         I1Cent=           4 NGrid=           0.
 Petite list used in FoFCou.
 Initial guess orbital symmetries:
       Occupied  (A) (A) (A) (A) (A) (A) (A) (A) (A) (A) (A) (A)
                 (A) (A) (A) (A) (A) (A) (A) (A) (A) (A) (A) (A)
                 (A) (A) (A) (A) (A) (A) (A) (A) (A) (A) (A) (A)
                 (A) (A) (A) (A) (A) (A) (A) (A) (A) (A) (A) (A)
       Virtual   (A) (A) (A) (A) (A) (A) (A) (A) (A) (A) (A) (A)
                 (A) (A) (A) (A) (A) (A) (A) (A) (A) (A) (A) (A)
                 (A) (A) (A) (A) (A) (A) (A) (A) (A) (A) (A) (A)
                 (A) (A) (A) (A) (A) (A) (A) (A) (A) (A) (A) (A)
                 (A) (A) (A) (A) (A) (A) (A) (A) (A) (A) (A) (A)
                 (A) (A) (A) (A) (A) (A) (A) (A) (A) (A) (A) (A)
                 (A) (A) (A) (A) (A) (A) (A) (A) (A) (A) (A) (A)
                 (A) (A) (A) (A) (A) (A) (A) (A) (A) (A) (A) (A)
                 (A) (A) (A) (A) (A) (A) (A) (A) (A) (A) (A) (A)
                 (A) (A) (A) (A) (A) (A) (A) (A) (A) (A) (A) (A)
                 (A) (A) (A) (A) (A) (A) (A) (A) (A) (A) (A) (A)
                 (A) (A) (A) (A) (A) (A) (A) (A) (A) (A) (A) (A)
                 (A) (A) (A) (A) (A) (A) (A) (A) (A) (A) (A) (A)
 The electronic state of the initial guess is 1-A.
 Requested convergence on RMS density matrix=1.00D-08 within 128 cycles.
 Requested convergence on MAX density matrix=1.00D-06.
 Requested convergence on             energy=1.00D-06.
 No special actions if energy rises.
 Keep R1 ints in memory in canonical form, NReq=223281102.
 Integral accuracy reduced to 1.0D-05 until final iterations.
 Initial convergence to 1.0D-05 achieved.  Increase integral accuracy.
 SCF Done:  E(RB3LYP) =  -687.089214996     A.U. after   14 cycles
             Convg  =    0.6841D-08             -V/T =  2.0085

 **********************************************************************

            Population analysis using the SCF density.

 **********************************************************************

 Orbital symmetries:
       Occupied  (A) (A) (A) (A) (A) (A) (A) (A) (A) (A) (A) (A)
                 (A) (A) (A) (A) (A) (A) (A) (A) (A) (A) (A) (A)
                 (A) (A) (A) (A) (A) (A) (A) (A) (A) (A) (A) (A)
                 (A) (A) (A) (A) (A) (A) (A) (A) (A) (A) (A) (A)
       Virtual   (A) (A) (A) (A) (A) (A) (A) (A) (A) (A) (A) (A)
                 (A) (A) (A) (A) (A) (A) (A) (A) (A) (A) (A) (A)
                 (A) (A) (A) (A) (A) (A) (A) (A) (A) (A) (A) (A)
                 (A) (A) (A) (A) (A) (A) (A) (A) (A) (A) (A) (A)
                 (A) (A) (A) (A) (A) (A) (A) (A) (A) (A) (A) (A)
                 (A) (A) (A) (A) (A) (A) (A) (A) (A) (A) (A) (A)
                 (A) (A) (A) (A) (A) (A) (A) (A) (A) (A) (A) (A)
                 (A) (A) (A) (A) (A) (A) (A) (A) (A) (A) (A) (A)
                 (A) (A) (A) (A) (A) (A) (A) (A) (A) (A) (A) (A)
                 (A) (A) (A) (A) (A) (A) (A) (A) (A) (A) (A) (A)
                 (A) (A) (A) (A) (A) (A) (A) (A) (A) (A) (A) (A)
                 (A) (A) (A) (A) (A) (A) (A) (A) (A) (A) (A) (A)
                 (A) (A) (A) (A) (A) (A) (A) (A) (A) (A) (A) (A)
 The electronic state is 1-A.
 Alpha  occ. eigenvalues --  -19.16538 -19.15627 -19.15471 -19.14639 -19.14289
 Alpha  occ. eigenvalues --  -19.14048 -10.27818 -10.25336 -10.25128 -10.24476
 Alpha  occ. eigenvalues --  -10.24400 -10.22806  -1.05346  -1.03990  -1.03124
 Alpha  occ. eigenvalues --   -1.02587  -1.01078  -1.00727  -0.78555  -0.75326
 Alpha  occ. eigenvalues --   -0.70926  -0.65020  -0.58966  -0.56865  -0.54398
 Alpha  occ. eigenvalues --   -0.53231  -0.52689  -0.51307  -0.49791  -0.47937
 Alpha  occ. eigenvalues --   -0.47300  -0.44512  -0.43401  -0.42736  -0.41237
 Alpha  occ. eigenvalues --   -0.40283  -0.36662  -0.36184  -0.34991  -0.34600
 Alpha  occ. eigenvalues --   -0.33777  -0.32878  -0.31405  -0.28953  -0.27533
 Alpha  occ. eigenvalues --   -0.26580  -0.26129  -0.24290
 Alpha virt. eigenvalues --   -0.03180   0.03248   0.05119   0.06259   0.07088
 Alpha virt. eigenvalues --    0.09088   0.11251   0.14064   0.14407   0.15377
 Alpha virt. eigenvalues --    0.16055   0.16908   0.18252   0.18910   0.19687
 Alpha virt. eigenvalues --    0.21038   0.23414   0.23741   0.24032   0.27488
 Alpha virt. eigenvalues --    0.29667   0.31014   0.34689   0.37694   0.52652
 Alpha virt. eigenvalues --    0.53896   0.54908   0.55449   0.56145   0.57872
 Alpha virt. eigenvalues --    0.60542   0.60982   0.62930   0.64766   0.65975
 Alpha virt. eigenvalues --    0.66838   0.68640   0.71303   0.72280   0.74094
 Alpha virt. eigenvalues --    0.77476   0.78780   0.80369   0.81058   0.81691
 Alpha virt. eigenvalues --    0.82660   0.82797   0.84739   0.85527   0.86564
 Alpha virt. eigenvalues --    0.88685   0.90726   0.90988   0.93326   0.93823
 Alpha virt. eigenvalues --    0.94348   0.95909   0.96579   0.98465   0.99282
 Alpha virt. eigenvalues --    1.00251   1.00965   1.04001   1.04133   1.06530
 Alpha virt. eigenvalues --    1.08850   1.09466   1.12209   1.14285   1.15821
 Alpha virt. eigenvalues --    1.18890   1.19420   1.23504   1.26869   1.29288
 Alpha virt. eigenvalues --    1.32633   1.34141   1.36743   1.39812   1.42412
 Alpha virt. eigenvalues --    1.47782   1.52426   1.53673   1.55809   1.59889
 Alpha virt. eigenvalues --    1.62963   1.63104   1.64511   1.69242   1.71324
 Alpha virt. eigenvalues --    1.71625   1.73316   1.74171   1.75661   1.77660
 Alpha virt. eigenvalues --    1.78961   1.79384   1.81705   1.82908   1.87255
 Alpha virt. eigenvalues --    1.90550   1.91206   1.92963   1.95111   1.95735
 Alpha virt. eigenvalues --    1.99173   1.99521   2.01051   2.07265   2.08374
 Alpha virt. eigenvalues --    2.11358   2.11860   2.14496   2.17071   2.18004
 Alpha virt. eigenvalues --    2.21559   2.24093   2.25081   2.28938   2.32271
 Alpha virt. eigenvalues --    2.34811   2.36005   2.41074   2.44063   2.46766
 Alpha virt. eigenvalues --    2.47087   2.49028   2.51182   2.53390   2.56943
 Alpha virt. eigenvalues --    2.60256   2.60750   2.63503   2.64319   2.68072
 Alpha virt. eigenvalues --    2.73463   2.79857   2.88955   2.90209   2.92007
 Alpha virt. eigenvalues --    2.95013   2.98675   3.01611   3.04679   3.69560
 Alpha virt. eigenvalues --    3.75242   3.77445   3.81396   3.88505   4.05610
 Alpha virt. eigenvalues --    4.17190   4.28784   4.39280   4.42894   4.56264
 Alpha virt. eigenvalues --    4.72859
          Condensed to atoms (all electrons):
              1          2          3          4          5          6
     1  C    5.206261   0.217913  -0.022203   0.341104   0.339865   0.254450
     2  O    0.217913   8.252980   0.232031  -0.037782  -0.031798  -0.032386
     3  H   -0.022203   0.232031   0.400136  -0.004551  -0.003692   0.006502
     4  H    0.341104  -0.037782  -0.004551   0.633809  -0.046706  -0.033175
     5  H    0.339865  -0.031798  -0.003692  -0.046706   0.582140  -0.030142
     6  C    0.254450  -0.032386   0.006502  -0.033175  -0.030142   4.656645
     7  O   -0.081426   0.002704   0.000238   0.000290   0.000049   0.561883
     8  C   -0.125961   0.001876  -0.000223   0.004879   0.006345   0.263155
     9  C    0.005714   0.000121   0.000012  -0.002059  -0.005786  -0.038361
    10  C   -0.000028   0.000000   0.000000   0.000233   0.000326   0.002335
    11  C    0.000012   0.000000   0.000000  -0.000005  -0.000036   0.000013
    12  H   -0.000003   0.000000   0.000000  -0.000009  -0.000002   0.000002
    13  H    0.000000   0.000000   0.000000   0.000000  -0.000002   0.000002
    14  O    0.000000   0.000000   0.000000   0.000000   0.000000   0.000000
    15  H    0.000000   0.000000   0.000000   0.000000   0.000000   0.000000
    16  H    0.006853  -0.000033   0.000005  -0.000707   0.000238  -0.030092
    17  O    0.002750  -0.000007   0.000001   0.000062  -0.000047  -0.044130
    18  H   -0.000237   0.000001   0.000000   0.000003  -0.000015   0.001853
    19  H   -0.003598  -0.000016  -0.000007   0.006136   0.000625   0.001545
    20  O   -0.014893   0.000265   0.000015  -0.000882   0.022344  -0.003498
    21  H    0.006632  -0.000189  -0.000063   0.000626  -0.000429  -0.001630
    22  H   -0.000020   0.000000   0.000000  -0.000001   0.000004   0.000238
    23  O    0.000003   0.000000   0.000000  -0.000005  -0.000004   0.000202
    24  H    0.000000   0.000000   0.000000   0.000000   0.000000   0.000004
              7          8          9         10         11         12
     1  C   -0.081426  -0.125961   0.005714  -0.000028   0.000012  -0.000003
     2  O    0.002704   0.001876   0.000121   0.000000   0.000000   0.000000
     3  H    0.000238  -0.000223   0.000012   0.000000   0.000000   0.000000
     4  H    0.000290   0.004879  -0.002059   0.000233  -0.000005  -0.000009
     5  H    0.000049   0.006345  -0.005786   0.000326  -0.000036  -0.000002
     6  C    0.561883   0.263155  -0.038361   0.002335   0.000013   0.000002
     7  O    8.002769  -0.059206   0.002989  -0.000050   0.000000   0.000000
     8  C   -0.059206   5.188680   0.255902  -0.027471   0.005301  -0.000103
     9  C    0.002989   0.255902   5.119162   0.289251  -0.052152  -0.003077
    10  C   -0.000050  -0.027471   0.289251   4.961929   0.346207  -0.031112
    11  C    0.000000   0.005301  -0.052152   0.346207   4.912115   0.348725
    12  H    0.000000  -0.000103  -0.003077  -0.031112   0.348725   0.655399
    13  H    0.000000  -0.000110   0.002004  -0.037828   0.348080  -0.051021
    14  O    0.000000  -0.000020   0.001914  -0.043513   0.240383  -0.041848
    15  H    0.000000   0.000002  -0.000236   0.006069  -0.022854  -0.004168
    16  H   -0.001800   0.342562  -0.044867  -0.003161   0.000262  -0.000010
    17  O   -0.000586   0.222528  -0.070149   0.001889   0.000215  -0.000002
    18  H    0.000793  -0.014959   0.005295   0.000970   0.000008   0.000000
    19  H    0.000002  -0.052728   0.341318  -0.035911  -0.009291   0.006355
    20  O   -0.000047  -0.044569   0.186416  -0.045049   0.003022   0.000222
    21  H    0.000009   0.008029  -0.017357   0.001641   0.000684  -0.000034
    22  H   -0.000001  -0.009136  -0.042709   0.353384  -0.044925   0.006780
    23  O    0.000000   0.005431  -0.044167   0.198936  -0.067597  -0.002721
    24  H    0.000000   0.000413   0.003127  -0.016496   0.004994  -0.000141
             13         14         15         16         17         18
     1  C    0.000000   0.000000   0.000000   0.006853   0.002750  -0.000237
     2  O    0.000000   0.000000   0.000000  -0.000033  -0.000007   0.000001
     3  H    0.000000   0.000000   0.000000   0.000005   0.000001   0.000000
     4  H    0.000000   0.000000   0.000000  -0.000707   0.000062   0.000003
     5  H   -0.000002   0.000000   0.000000   0.000238  -0.000047  -0.000015
     6  C    0.000002   0.000000   0.000000  -0.030092  -0.044130   0.001853
     7  O    0.000000   0.000000   0.000000  -0.001800  -0.000586   0.000793
     8  C   -0.000110  -0.000020   0.000002   0.342562   0.222528  -0.014959
     9  C    0.002004   0.001914  -0.000236  -0.044867  -0.070149   0.005295
    10  C   -0.037828  -0.043513   0.006069  -0.003161   0.001889   0.000970
    11  C    0.348080   0.240383  -0.022854   0.000262   0.000215   0.000008
    12  H   -0.051021  -0.041848  -0.004168  -0.000010  -0.000002   0.000000
    13  H    0.642877  -0.039669  -0.004161  -0.000016  -0.000001  -0.000001
    14  O   -0.039669   8.274440   0.235380  -0.000001   0.000000   0.000000
    15  H   -0.004161   0.235380   0.397569   0.000000   0.000000   0.000000
    16  H   -0.000016  -0.000001   0.000000   0.595499  -0.024959  -0.014736
    17  O   -0.000001   0.000000   0.000000  -0.024959   8.266158   0.233959
    18  H   -0.000001   0.000000   0.000000  -0.014736   0.233959   0.384183
    19  H    0.000324  -0.000035  -0.000002   0.001081   0.004042  -0.000279
    20  O    0.009040   0.000077   0.000009   0.003246   0.001294  -0.000048
    21  H    0.000389  -0.000002  -0.000002  -0.000320  -0.000120   0.000000
    22  H   -0.002591   0.003370  -0.000172   0.000633   0.011904  -0.000611
    23  O    0.005126   0.002636   0.000068   0.009301  -0.000289   0.000111
    24  H   -0.000333   0.001051  -0.000004  -0.000108   0.000082   0.000083
             19         20         21         22         23         24
     1  C   -0.003598  -0.014893   0.006632  -0.000020   0.000003   0.000000
     2  O   -0.000016   0.000265  -0.000189   0.000000   0.000000   0.000000
     3  H   -0.000007   0.000015  -0.000063   0.000000   0.000000   0.000000
     4  H    0.006136  -0.000882   0.000626  -0.000001  -0.000005   0.000000
     5  H    0.000625   0.022344  -0.000429   0.000004  -0.000004   0.000000
     6  C    0.001545  -0.003498  -0.001630   0.000238   0.000202   0.000004
     7  O    0.000002  -0.000047   0.000009  -0.000001   0.000000   0.000000
     8  C   -0.052728  -0.044569   0.008029  -0.009136   0.005431   0.000413
     9  C    0.341318   0.186416  -0.017357  -0.042709  -0.044167   0.003127
    10  C   -0.035911  -0.045049   0.001641   0.353384   0.198936  -0.016496
    11  C   -0.009291   0.003022   0.000684  -0.044925  -0.067597   0.004994
    12  H    0.006355   0.000222  -0.000034   0.006780  -0.002721  -0.000141
    13  H    0.000324   0.009040   0.000389  -0.002591   0.005126  -0.000333
    14  O   -0.000035   0.000077  -0.000002   0.003370   0.002636   0.001051
    15  H   -0.000002   0.000009  -0.000002  -0.000172   0.000068  -0.000004
    16  H    0.001081   0.003246  -0.000320   0.000633   0.009301  -0.000108
    17  O    0.004042   0.001294  -0.000120   0.011904  -0.000289   0.000082
    18  H   -0.000279  -0.000048   0.000000  -0.000611   0.000111   0.000083
    19  H    0.663786  -0.036072  -0.016828   0.007232   0.001812  -0.000270
    20  O   -0.036072   8.307676   0.224348   0.001345   0.001318  -0.000084
    21  H   -0.016828   0.224348   0.397089  -0.000299  -0.000050  -0.000001
    22  H    0.007232   0.001345  -0.000299   0.597116  -0.028612  -0.010163
    23  O    0.001812   0.001318  -0.000050  -0.028612   8.306696   0.233226
    24  H   -0.000270  -0.000084  -0.000001  -0.010163   0.233226   0.382468
 Mulliken atomic charges:
              1
     1  C   -0.133187
     2  O   -0.605679
     3  H    0.391799
     4  H    0.138742
     5  H    0.166721
     6  C    0.464585
     7  O   -0.428612
     8  C    0.029381
     9  C    0.107692
    10  C    0.077449
    11  C   -0.013163
    12  H    0.116766
    13  H    0.127889
    14  O   -0.634163
    15  H    0.392500
    16  H    0.161129
    17  O   -0.604595
    18  H    0.403624
    19  H    0.120779
    20  O   -0.615495
    21  H    0.397875
    22  H    0.157233
    23  O   -0.621420
    24  H    0.402151
 Sum of Mulliken atomic charges =   0.00000
 Mulliken charges with hydrogens summed into heavy atoms:
              1
     1  C    0.172276
     2  O   -0.213880
     6  C    0.464585
     7  O   -0.428612
     8  C    0.190510
     9  C    0.228471
    10  C    0.234682
    11  C    0.231492
    14  O   -0.241663
    17  O   -0.200971
    20  O   -0.217620
    23  O   -0.219270
 Sum of Mulliken charges with hydrogens summed into heavy atoms =   0.00000
 Electronic spatial extent (au):  <R**2>=           2756.0752
 Charge=              0.0000 electrons
 Dipole moment (field-independent basis, Debye):
    X=              3.3115    Y=             -3.1402    Z=             -1.3701  Tot=              4.7649
 Quadrupole moment (field-independent basis, Debye-Ang):
   XX=            -84.3556   YY=            -50.8032   ZZ=            -76.2860
   XY=              7.3171   XZ=              2.3259   YZ=              0.8346
 Traceless Quadrupole moment (field-independent basis, Debye-Ang):
   XX=            -13.8740   YY=             19.6784   ZZ=             -5.8044
   XY=              7.3171   XZ=              2.3259   YZ=              0.8346
 Octapole moment (field-independent basis, Debye-Ang**2):
  XXX=             82.6370  YYY=              0.7415  ZZZ=             -0.7298  XYY=              8.0165
  XXY=            -59.5081  XXZ=              6.8143  XZZ=             -5.6196  YZZ=             -0.6648
  YYZ=             -1.6562  XYZ=             -1.7304
 Hexadecapole moment (field-independent basis, Debye-Ang**3):
 XXXX=          -2569.2500 YYYY=           -395.9667 ZZZZ=           -236.5292 XXXY=            -19.9859
 XXXZ=            -12.4780 YYYX=             91.3790 YYYZ=              5.0302 ZZZX=              6.2725
 ZZZY=              0.3442 XXYY=           -362.1318 XXZZ=           -462.6327 YYZZ=           -124.7854
 XXYZ=              3.8312 YYXZ=             -0.5981 ZZXY=              4.1776
 N-N= 7.799262837514D+02 E-N=-3.171749238975D+03  KE= 6.813290292620D+02
 Calling FoFJK, ICntrl=      2127 FMM=F ISym2X=0 I1Cent= 0 IOpClX= 0 NMat=1 NMatS=1 NMatT=0.
 ***** Axes restored to original set *****
 -------------------------------------------------------------------
 Center     Atomic                   Forces (Hartrees/Bohr)
 Number     Number              X              Y              Z
 -------------------------------------------------------------------
      1        6           0.004266841    0.004869514    0.026506022
      2        8          -0.003432102   -0.002758683    0.007050754
      3        1          -0.003894919    0.000383073   -0.001863878
      4        1           0.003035571   -0.003752674   -0.010330931
      5        1          -0.002088415   -0.000796405   -0.005107007
      6        6          -0.018429489   -0.004044729    0.028783103
      7        8           0.024133729    0.002064872   -0.025224913
      8        6          -0.009999390    0.005309023   -0.015676435
      9        6           0.008715958   -0.015949309    0.005732310
     10        6           0.018492142   -0.007435260   -0.009219519
     11        6           0.011805234    0.014257302   -0.008118947
     12        1          -0.000853307   -0.002947808    0.009805981
     13        1           0.001532720    0.001715440    0.008482522
     14        8          -0.005530013    0.000512436   -0.005919956
     15        1          -0.004128830    0.000191501    0.001736822
     16        1           0.007777135   -0.007162211    0.000292281
     17        8          -0.009987543    0.007444140   -0.004945412
     18        1           0.004030288    0.003862417    0.005076882
     19        1          -0.003252381   -0.006645004   -0.005591795
     20        8           0.005221027    0.012144772   -0.005046266
     21        1          -0.003909098    0.003144659   -0.006348933
     22        1          -0.003546183   -0.002100939    0.001607837
     23        8          -0.025052298    0.000552655    0.007410879
     24        1           0.005093323   -0.002858786    0.000908598
 -------------------------------------------------------------------
 Cartesian Forces:  Max     0.028783103 RMS     0.009671819

 GradGradGradGradGradGradGradGradGradGradGradGradGradGradGradGradGradGrad
 Berny optimization.
 Internal  Forces:  Max     0.036946216 RMS     0.008870791
 Search for a local minimum.
 Step number   1 out of a maximum of  125
 All quantities printed in internal units (Hartrees-Bohrs-Radians)
 Mixed Optimization -- RFO/linear search
 Second derivative matrix not updated -- first step.
 ITU=  0
     Eigenvalues ---    0.00235   0.00287   0.00383   0.00400   0.00474
     Eigenvalues ---    0.00546   0.01330   0.01367   0.01374   0.01398
     Eigenvalues ---    0.01513   0.03721   0.04319   0.04406   0.04671
     Eigenvalues ---    0.05234   0.05249   0.05269   0.05567   0.06358
     Eigenvalues ---    0.07288   0.07362   0.07684   0.08492   0.11472
     Eigenvalues ---    0.11550   0.13692   0.13970   0.15909   0.16000
     Eigenvalues ---    0.16000   0.16000   0.16000   0.16000   0.17760
     Eigenvalues ---    0.18243   0.19154   0.19782   0.20268   0.22028
     Eigenvalues ---    0.22170   0.24991   0.25000   0.28507   0.28855
     Eigenvalues ---    0.29519   0.29643   0.30691   0.33939   0.34161
     Eigenvalues ---    0.34212   0.34235   0.34424   0.34470   0.34557
     Eigenvalues ---    0.41374   0.41777   0.41860   0.42126   0.43452
     Eigenvalues ---    0.52821   0.52872   0.52885   0.52899   0.52984
     Eigenvalues ---    0.90276
 RFO step:  Lambda=-3.95849239D-02 EMin= 2.34970769D-03
 Linear search not attempted -- first point.
 Maximum step size (   0.300) exceeded in Quadratic search.
    -- Step size scaled by   0.861
 Iteration  1 RMS(Cart)=  0.23643785 RMS(Int)=  0.01140098
 Iteration  2 RMS(Cart)=  0.02911920 RMS(Int)=  0.00089604
 Iteration  3 RMS(Cart)=  0.00043438 RMS(Int)=  0.00088317
 Iteration  4 RMS(Cart)=  0.00000040 RMS(Int)=  0.00088317
 Variable       Old X    -DE/DX   Delta X   Delta X   Delta X     New X
                                 (Linear)    (Quad)   (Total)
    R1        2.67116   0.00519   0.00000   0.00942   0.00942   2.68058
    R2        2.06543   0.00781   0.00000   0.01751   0.01751   2.08294
    R3        2.06400  -0.00002   0.00000  -0.00005  -0.00005   2.06394
    R4        2.86607   0.00369   0.00000   0.00917   0.00917   2.87524
    R5        1.83773  -0.00427   0.00000  -0.00648  -0.00648   1.83125
    R6        2.32806  -0.03461   0.00000  -0.03164  -0.03164   2.29642
    R7        2.88681   0.02011   0.00000   0.05155   0.05155   2.93836
    R8        2.90306   0.00617   0.00000   0.01619   0.01619   2.91925
    R9        2.06974   0.00155   0.00000   0.00350   0.00350   2.07324
   R10        2.68763   0.01226   0.00000   0.02292   0.02292   2.71055
   R11        2.91044  -0.00643   0.00000  -0.01705  -0.01705   2.89339
   R12        2.07433   0.00228   0.00000   0.00517   0.00517   2.07951
   R13        2.69207   0.00974   0.00000   0.01835   0.01835   2.71043
   R14        2.88932  -0.00019   0.00000  -0.00048  -0.00048   2.88884
   R15        2.07060  -0.00028   0.00000  -0.00063  -0.00063   2.06997
   R16        2.69728   0.00723   0.00000   0.01373   0.01373   2.71101
   R17        2.06935   0.00402   0.00000   0.00907   0.00907   2.07842
   R18        2.06621   0.00411   0.00000   0.00922   0.00922   2.07542
   R19        2.69101   0.00575   0.00000   0.01081   0.01081   2.70183
   R20        1.83748  -0.00447   0.00000  -0.00677  -0.00677   1.83071
   R21        1.83821  -0.00669   0.00000  -0.01015  -0.01015   1.82806
   R22        1.83668  -0.00699   0.00000  -0.01057  -0.01057   1.82611
   R23        1.83761  -0.00522   0.00000  -0.00791  -0.00791   1.82970
    A1        1.89497   0.00704   0.00000   0.03472   0.03435   1.92932
    A2        1.89387   0.00809   0.00000   0.04106   0.04072   1.93459
    A3        1.92697  -0.00903   0.00000  -0.02724  -0.02709   1.89988
    A4        1.92656  -0.00199   0.00000  -0.01313  -0.01413   1.91244
    A5        1.91043  -0.00170   0.00000  -0.01631  -0.01628   1.89416
    A6        1.91099  -0.00235   0.00000  -0.01849  -0.01841   1.89258
    A7        1.87619  -0.00111   0.00000  -0.00481  -0.00481   1.87138
    A8        2.11798  -0.01276   0.00000  -0.03814  -0.03824   2.07973
    A9        2.04303   0.03695   0.00000   0.10972   0.10963   2.15266
   A10        2.12188  -0.02421   0.00000  -0.07222  -0.07231   2.04957
   A11        2.01561   0.03159   0.00000   0.12113   0.12172   2.13733
   A12        1.86956  -0.01133   0.00000  -0.06191  -0.05952   1.81004
   A13        1.88725  -0.01148   0.00000  -0.02300  -0.02570   1.86155
   A14        1.92887  -0.01317   0.00000  -0.07048  -0.06827   1.86060
   A15        1.88958  -0.00620   0.00000  -0.00364  -0.00549   1.88409
   A16        1.86730   0.00956   0.00000   0.03426   0.03324   1.90053
   A17        2.01558  -0.01602   0.00000  -0.07543  -0.07554   1.94003
   A18        1.85915   0.00383   0.00000   0.02635   0.02342   1.88256
   A19        1.92822   0.01393   0.00000   0.04796   0.04436   1.97258
   A20        1.87740   0.00181   0.00000  -0.01246  -0.01172   1.86567
   A21        1.91801  -0.00580   0.00000  -0.03824  -0.03743   1.88058
   A22        1.85723   0.00376   0.00000   0.06419   0.06245   1.91968
   A23        1.95210  -0.00457   0.00000  -0.00390  -0.00355   1.94855
   A24        1.93255   0.00272   0.00000  -0.01389  -0.01482   1.91773
   A25        1.91878  -0.00968   0.00000  -0.03583  -0.03709   1.88169
   A26        1.88432  -0.00201   0.00000  -0.00276  -0.00261   1.88171
   A27        1.78133   0.01860   0.00000   0.09677   0.09704   1.87837
   A28        1.99016  -0.00415   0.00000  -0.03211  -0.03385   1.95631
   A29        1.93950  -0.00500   0.00000  -0.03555  -0.03550   1.90400
   A30        1.95260  -0.00119   0.00000  -0.01575  -0.01568   1.93692
   A31        1.89918  -0.01185   0.00000  -0.03612  -0.03594   1.86324
   A32        1.91100   0.00009   0.00000  -0.00248  -0.00420   1.90680
   A33        1.88009   0.01031   0.00000   0.05119   0.05033   1.93042
   A34        1.87901   0.00847   0.00000   0.04377   0.04323   1.92224
   A35        1.86806   0.00056   0.00000   0.00242   0.00242   1.87048
   A36        1.88091   0.00319   0.00000   0.01377   0.01377   1.89468
   A37        1.88426   0.00149   0.00000   0.00644   0.00644   1.89070
   A38        1.88331   0.00373   0.00000   0.01609   0.01609   1.89941
    D1        1.04720   0.00340   0.00000   0.01786   0.01860   1.06580
    D2       -1.04720  -0.00299   0.00000  -0.01035  -0.01111  -1.05831
    D3        3.14159   0.00027   0.00000   0.00310   0.00313  -3.13847
    D4       -0.02957   0.00169   0.00000   0.02929   0.02917  -0.00039
    D5        3.13798   0.00323   0.00000   0.05763   0.05774  -3.08746
    D6        2.05550   0.00374   0.00000   0.04506   0.04487   2.10037
    D7       -1.06014   0.00527   0.00000   0.07340   0.07344  -0.98670
    D8       -2.11363  -0.00125   0.00000   0.00707   0.00704  -2.10659
    D9        1.05392   0.00029   0.00000   0.03541   0.03561   1.08952
   D10       -0.02602   0.00206   0.00000   0.02068   0.02133  -0.00469
   D11        2.13081  -0.00223   0.00000  -0.03614  -0.03676   2.09405
   D12       -2.14533  -0.00250   0.00000  -0.03892  -0.03860  -2.18393
   D13        3.14159   0.00342   0.00000   0.04854   0.04896  -3.09264
   D14       -0.98477  -0.00087   0.00000  -0.00827  -0.00913  -0.99390
   D15        1.02227  -0.00115   0.00000  -0.01106  -0.01097   1.01131
   D16        3.12086  -0.00185   0.00000  -0.06141  -0.06216   3.05870
   D17        1.03783   0.00287   0.00000  -0.01857  -0.01907   1.01875
   D18       -0.97232  -0.01069   0.00000  -0.13300  -0.13499  -1.10731
   D19        0.99555   0.00042   0.00000  -0.01231  -0.01144   0.98411
   D20       -1.08748   0.00514   0.00000   0.03052   0.03165  -1.05583
   D21       -3.09763  -0.00843   0.00000  -0.08391  -0.08427   3.10129
   D22       -1.04427  -0.00008   0.00000  -0.01203  -0.01117  -1.05544
   D23       -3.12730   0.00463   0.00000   0.03080   0.03192  -3.09538
   D24        1.14574  -0.00893   0.00000  -0.08363  -0.08400   1.06174
   D25       -2.00853   0.01561   0.00000   0.09433   0.09375  -1.91479
   D26        2.07914  -0.01198   0.00000  -0.03792  -0.03727   2.04187
   D27        0.00000   0.00165   0.00000   0.02846   0.02840   0.02840
   D28       -3.12566  -0.00378   0.00000  -0.02711  -0.02621   3.13131
   D29        1.05505  -0.00001   0.00000  -0.01143  -0.01059   1.04446
   D30       -1.15972   0.01058   0.00000   0.06723   0.06749  -1.09222
   D31       -1.05269  -0.00758   0.00000  -0.04956  -0.04894  -1.10163
   D32        3.12801  -0.00381   0.00000  -0.03387  -0.03332   3.09470
   D33        0.91324   0.00678   0.00000   0.04479   0.04477   0.95801
   D34        0.96229  -0.00516   0.00000  -0.00036  -0.00117   0.96111
   D35       -1.14019  -0.00140   0.00000   0.01533   0.01445  -1.12574
   D36        2.92823   0.00920   0.00000   0.09399   0.09253   3.02076
   D37        2.01135   0.01181   0.00000   0.09843   0.10014   2.11149
   D38       -2.02772  -0.00304   0.00000   0.00674   0.00648  -2.02124
   D39        0.00000  -0.00178   0.00000   0.00788   0.00643   0.00643
   D40        1.09888  -0.00258   0.00000  -0.00288  -0.00252   1.09636
   D41       -1.04308   0.00179   0.00000   0.03742   0.03766  -1.00542
   D42       -3.11698  -0.00032   0.00000   0.01616   0.01663  -3.10036
   D43       -3.05394  -0.00344   0.00000  -0.02457  -0.02488  -3.07882
   D44        1.08729   0.00094   0.00000   0.01573   0.01530   1.10259
   D45       -0.98661  -0.00117   0.00000  -0.00553  -0.00574  -0.99235
   D46       -0.95145   0.00029   0.00000  -0.01379  -0.01383  -0.96528
   D47       -3.09340   0.00467   0.00000   0.02651   0.02635  -3.06705
   D48        1.11588   0.00256   0.00000   0.00525   0.00532   1.12120
   D49        2.18207  -0.00142   0.00000  -0.01613  -0.01516   2.16691
   D50       -2.02702  -0.00109   0.00000   0.01495   0.01504  -2.01198
   D51        0.00000   0.00583   0.00000   0.05521   0.05415   0.05415
   D52       -3.13543   0.00103   0.00000   0.00435   0.00450  -3.13093
   D53       -1.03109  -0.00575   0.00000  -0.02912  -0.03054  -1.06163
   D54        1.02827   0.00432   0.00000   0.01836   0.01963   1.04789
         Item               Value     Threshold  Converged?
 Maximum Force            0.036946     0.000450     NO 
 RMS     Force            0.008871     0.000300     NO 
 Maximum Displacement     0.900145     0.001800     NO 
 RMS     Displacement     0.254614     0.001200     NO 
 Predicted change in Energy=-2.332536D-02
 GradGradGradGradGradGradGradGradGradGradGradGradGradGradGradGradGradGrad

                          Input orientation:                          
 ---------------------------------------------------------------------
 Center     Atomic      Atomic             Coordinates (Angstroms)
 Number     Number       Type             X           Y           Z
 ---------------------------------------------------------------------
      1          6           0       -0.063424   -0.017336    0.281415
      2          8           0       -0.384662   -0.131484    1.658341
      3          1           0        0.451151   -0.133731    2.148733
      4          1           0        0.546523   -0.875128   -0.045848
      5          1           0        0.475836    0.911676    0.083879
      6          6           0       -1.353502   -0.005702   -0.525156
      7          8           0       -2.416759   -0.089059    0.057323
      8          6           0       -1.389450    0.037704   -2.079049
      9          6           0       -0.105629    0.078965   -2.937247
     10          6           0       -0.436065   -0.001551   -4.430113
     11          6           0        0.826201    0.052974   -5.290729
     12          1           0        1.453093   -0.822270   -5.065709
     13          1           0        1.398437    0.969030   -5.091791
     14          8           0        0.396859    0.027190   -6.654243
     15          1           0        1.193222    0.051676   -7.205351
     16          1           0       -1.919999   -0.882796   -2.352641
     17          8           0       -2.199082    1.165265   -2.440284
     18          1           0       -3.029698    0.840451   -2.814948
     19          1           0        0.492124   -0.812222   -2.693486
     20          8           0        0.673007    1.264680   -2.725085
     21          1           0        1.551234    1.000995   -2.420138
     22          1           0       -1.073594    0.841901   -4.716485
     23          8           0       -1.071971   -1.264693   -4.671336
     24          1           0       -1.930614   -1.107329   -5.090204
 ---------------------------------------------------------------------
                    Distance matrix (angstroms):
                    1          2          3          4          5
     1  C    0.000000
     2  O    1.418503   0.000000
     3  H    1.940416   0.969057   0.000000
     4  H    1.102245   2.079513   2.318394   0.000000
     5  H    1.092193   2.075469   2.314542   1.792901   0.000000
     6  C    1.521511   2.392098   3.228443   2.143766   2.135178
     7  O    2.365068   2.587369   3.549774   3.067505   3.060928
     8  C    2.707981   3.873798   4.614254   2.952145   2.986867
     9  C    3.220378   4.608859   5.120785   3.113805   3.187273
    10  C    4.726267   6.090057   6.639716   4.577160   4.694855
    11  C    5.643152   7.056188   7.451249   5.333702   5.454038
    12  H    5.616001   7.004811   7.316157   5.101340   5.520856
    13  H    5.655201   7.067875   7.385027   5.439505   5.257570
    14  O    6.951056   8.350749   8.804614   6.671391   6.796384
    15  H    7.591810   9.004905   9.385304   7.248149   7.374762
    16  H    3.336786   4.360012   5.142550   3.377141   3.859635
    17  O    3.656121   4.666091   5.456207   4.175508   3.686583
    18  H    4.372876   5.286888   6.140315   4.837405   4.549400
    19  H    3.128979   4.491165   4.889695   2.648944   3.268921
    20  O    3.350364   4.720420   5.075321   3.431194   2.837916
    21  H    3.307945   4.654481   4.834498   3.188501   2.726638
    22  H    5.170854   6.485408   7.099854   5.233338   5.044710
    23  O    5.206035   6.466945   7.079005   4.915936   5.453839
    24  H    5.790403   6.991788   7.682637   5.624558   6.052976
                    6          7          8          9         10
     6  C    0.000000
     7  O    1.215214   0.000000
     8  C    1.554915   2.373925   0.000000
     9  C    2.717083   3.786424   1.544799   0.000000
    10  C    4.011283   4.905903   2.537318   1.531117   0.000000
    11  C    5.240729   6.256087   3.901824   2.531375   1.528708
    12  H    5.400035   6.462106   4.211857   2.787864   2.155569
    13  H    5.420095   6.495279   4.209073   2.774255   2.178357
    14  O    6.374210   7.278398   4.911558   3.751164   2.375151
    15  H    7.149413   8.111609   5.740153   4.461443   3.218595
    16  H    2.104736   2.585482   1.097112   2.135109   2.700841
    17  O    2.398725   2.803346   1.434360   2.410304   2.903292
    18  H    2.961208   3.080523   1.968849   3.024070   3.169331
    19  H    2.959470   4.068355   2.154118   1.100428   2.129458
    20  O    3.249662   4.372763   2.485269   1.434296   2.395934
    21  H    3.611355   4.803228   3.113180   1.965384   2.999075
    22  H    4.285326   5.045793   2.775350   2.164421   1.095383
    23  O    4.342249   5.054779   2.918387   2.397145   1.434606
    24  H    4.731417   5.269748   3.266652   3.061550   1.972851
                   11         12         13         14         15
    11  C    0.000000
    12  H    1.099854   0.000000
    13  H    1.098266   1.792323   0.000000
    14  O    1.429744   2.088217   2.081219   0.000000
    15  H    1.949483   2.325808   2.313177   0.968769   0.000000
    16  H    4.129121   4.329221   4.684466   4.969878   5.840734
    17  O    4.302856   4.917472   4.473381   5.078540   5.954298
    18  H    4.649470   5.284504   4.980856   5.209882   6.142545
    19  H    2.757869   2.559493   3.121879   4.049849   4.647019
    20  O    2.841519   3.231472   2.492981   4.128670   4.670630
    21  H    3.108812   3.214494   2.676210   4.495389   4.891589
    22  H    2.135739   3.045581   2.503587   2.565324   3.457942
    23  O    2.392270   2.593688   3.356966   2.785380   3.644881
    24  H    2.997756   3.395781   3.923499   3.024976   3.946579
                   16         17         18         19         20
    16  H    0.000000
    17  O    2.068846   0.000000
    18  H    2.101129   0.967368   0.000000
    19  H    2.437107   3.349201   3.892211   0.000000
    20  O    3.387337   2.887886   3.728011   2.085004   0.000000
    21  H    3.950023   3.753965   4.600716   2.117590   0.966336
    22  H    3.046103   2.559762   2.728038   3.046329   2.682355
    23  O    2.498268   3.486068   3.422061   2.561838   3.637385
    24  H    2.746776   3.501262   3.190396   3.420673   4.242529
                   21         22         23         24
    21  H    0.000000
    22  H    3.491166   0.000000
    23  O    4.133091   2.107079   0.000000
    24  H    4.868012   2.161862   0.968236   0.000000
 Stoichiometry    C6H12O6
 Framework group  C1[X(C6H12O6)]
 Deg. of freedom    66
 Full point group                 C1      NOp   1
 Largest Abelian subgroup         C1      NOp   1
 Largest concise Abelian subgroup C1      NOp   1
                         Standard orientation:                         
 ---------------------------------------------------------------------
 Center     Atomic      Atomic             Coordinates (Angstroms)
 Number     Number       Type             X           Y           Z
 ---------------------------------------------------------------------
      1          6           0       -2.671507   -0.994972   -0.285768
      2          8           0       -4.081595   -0.914512   -0.417402
      3          1           0       -4.410216   -1.817717   -0.541102
      4          1           0       -2.221799   -1.422722   -1.196666
      5          1           0       -2.395951   -1.603075    0.578619
      6          6           0       -2.115636    0.407013   -0.084671
      7          8           0       -2.881596    1.350189   -0.062990
      8          6           0       -0.595804    0.715751    0.027357
      9          6           0        0.482399   -0.387742   -0.051278
     10          6           0        1.890567    0.213000   -0.029081
     11          6           0        2.966943   -0.870708   -0.091854
     12          1           0        2.877277   -1.412000   -1.045081
     13          1           0        2.859117   -1.580569    0.739205
     14          8           0        4.228802   -0.203638   -0.008793
     15          1           0        4.916080   -0.884631   -0.057891
     16          1           0       -0.406874    1.398918   -0.810046
     17          8           0       -0.410537    1.427875    1.258594
     18          1           0       -0.188541    2.346588    1.052478
     19          1           0        0.369269   -0.901957   -1.017574
     20          8           0        0.394354   -1.335443    1.021715
     21          1           0        0.260707   -2.213642    0.641307
     22          1           0        2.039181    0.779712    0.896454
     23          8           0        2.034816    1.036474   -1.194918
     24          1           0        2.286028    1.929481   -0.917587
 ---------------------------------------------------------------------
 Rotational constants (GHZ):      1.9344489      0.4176063      0.3839073
 Standard basis: 6-31G(d) (6D, 7F)
 There are   204 symmetry adapted basis functions of A   symmetry.
 Integral buffers will be    131072 words long.
 Raffenetti 2 integral format.
 Two-electron integral symmetry is turned on.
   204 basis functions,   384 primitive gaussians,   204 cartesian basis functions
    48 alpha electrons       48 beta electrons
       nuclear repulsion energy       772.5813826275 Hartrees.
 NAtoms=   24 NActive=   24 NUniq=   24 SFac= 1.00D+00 NAtFMM=   50 NAOKFM=F Big=F
 One-electron integrals computed using PRISM.
 NBasis=   204 RedAO= T  NBF=   204
 NBsUse=   204 1.00D-06 NBFU=   204
 Initial guess read from the read-write file.
 B after Tr=     0.000000    0.000000    0.000000
         Rot=    1.000000    0.000000    0.000000    0.000000 Ang=   0.00 deg.
 Initial guess orbital symmetries:
       Occupied  (A) (A) (A) (A) (A) (A) (A) (A) (A) (A) (A) (A)
                 (A) (A) (A) (A) (A) (A) (A) (A) (A) (A) (A) (A)
                 (A) (A) (A) (A) (A) (A) (A) (A) (A) (A) (A) (A)
                 (A) (A) (A) (A) (A) (A) (A) (A) (A) (A) (A) (A)
       Virtual   (A) (A) (A) (A) (A) (A) (A) (A) (A) (A) (A) (A)
                 (A) (A) (A) (A) (A) (A) (A) (A) (A) (A) (A) (A)
                 (A) (A) (A) (A) (A) (A) (A) (A) (A) (A) (A) (A)
                 (A) (A) (A) (A) (A) (A) (A) (A) (A) (A) (A) (A)
                 (A) (A) (A) (A) (A) (A) (A) (A) (A) (A) (A) (A)
                 (A) (A) (A) (A) (A) (A) (A) (A) (A) (A) (A) (A)
                 (A) (A) (A) (A) (A) (A) (A) (A) (A) (A) (A) (A)
                 (A) (A) (A) (A) (A) (A) (A) (A) (A) (A) (A) (A)
                 (A) (A) (A) (A) (A) (A) (A) (A) (A) (A) (A) (A)
                 (A) (A) (A) (A) (A) (A) (A) (A) (A) (A) (A) (A)
                 (A) (A) (A) (A) (A) (A) (A) (A) (A) (A) (A) (A)
                 (A) (A) (A) (A) (A) (A) (A) (A) (A) (A) (A) (A)
                 (A) (A) (A) (A) (A) (A) (A) (A) (A) (A) (A) (A)
 Harris functional with IExCor=  402 diagonalized for initial guess.
 ExpMin= 1.61D-01 ExpMax= 5.48D+03 ExpMxC= 8.25D+02 IAcc=1 IRadAn=         1 AccDes= 0.00D+00
 HarFok:  IExCor=  402 AccDes= 0.00D+00 IRadAn=         1 IDoV= 1
 ScaDFX=  1.000000  1.000000  1.000000  1.000000
 FoFCou: FMM=F IPFlag=           0 FMFlag=      100000 FMFlg1=           0
         NFxFlg=           0 DoJE=T BraDBF=F KetDBF=T FulRan=T
         Omega=  0.000000  0.000000  1.000000  0.000000  0.000000 ICntrl=     500 IOpCl=  0
         NMat0=    1 NMatS0=    1 NMatT0=    0 NMatD0=    1 NMtDS0=    0 NMtDT0=    0
         I1Cent=           4 NGrid=           0.
 Petite list used in FoFCou.
 Requested convergence on RMS density matrix=1.00D-08 within 128 cycles.
 Requested convergence on MAX density matrix=1.00D-06.
 Requested convergence on             energy=1.00D-06.
 No special actions if energy rises.
 Keep R1 ints in memory in canonical form, NReq=223281311.
 Integral accuracy reduced to 1.0D-05 until final iterations.
 Initial convergence to 1.0D-05 achieved.  Increase integral accuracy.
 SCF Done:  E(RB3LYP) =  -687.099608854     A.U. after   14 cycles
             Convg  =    0.7505D-08             -V/T =  2.0087
 Calling FoFJK, ICntrl=      2127 FMM=F ISym2X=0 I1Cent= 0 IOpClX= 0 NMat=1 NMatS=1 NMatT=0.
 ***** Axes restored to original set *****
 -------------------------------------------------------------------
 Center     Atomic                   Forces (Hartrees/Bohr)
 Number     Number              X              Y              Z
 -------------------------------------------------------------------
      1        6          -0.002026343   -0.002296691    0.007643924
      2        8          -0.000653797   -0.000479616   -0.004020346
      3        1           0.000197157    0.000348692   -0.000601399
      4        1           0.002844106    0.001495013   -0.004478250
      5        1           0.005120349    0.003290716   -0.006185484
      6        6          -0.007267071   -0.004904178    0.008010976
      7        8           0.003175604    0.002405157   -0.007251389
      8        6          -0.004743413    0.006858662   -0.007116920
      9        6           0.004815948   -0.003004504    0.007883329
     10        6           0.004883457   -0.005133901   -0.006502775
     11        6          -0.002729230    0.002489770   -0.007664371
     12        1           0.000800137   -0.001107039    0.001655970
     13        1          -0.001067506   -0.000941848    0.003309558
     14        8           0.000656858   -0.000129244    0.001946943
     15        1          -0.000623892    0.000030700   -0.000575337
     16        1           0.004011329   -0.002039730   -0.000336468
     17        8           0.000977095    0.001728411   -0.001178202
     18        1          -0.000217270   -0.000129296    0.003969213
     19        1          -0.000329052   -0.001095784    0.000568904
     20        8          -0.004397171    0.001532668    0.007551191
     21        1           0.000221812   -0.000110102    0.000068170
     22        1          -0.001161128   -0.000678765    0.001790121
     23        8          -0.005679770    0.001844670    0.003842814
     24        1           0.003191789    0.000026239   -0.002330170
 -------------------------------------------------------------------
 Cartesian Forces:  Max     0.008010976 RMS     0.003718000

 GradGradGradGradGradGradGradGradGradGradGradGradGradGradGradGradGradGrad
 Berny optimization.
 Using GEDIIS/GDIIS optimizer.
 Internal  Forces:  Max     0.017705396 RMS     0.003791167
 Search for a local minimum.
 Step number   2 out of a maximum of  125
 All quantities printed in internal units (Hartrees-Bohrs-Radians)
 Mixed Optimization -- RFO/linear search
 Update second derivatives using D2CorX and points    1    2
 DE= -1.04D-02 DEPred=-2.33D-02 R= 4.46D-01
 Trust test= 4.46D-01 RLast= 4.42D-01 DXMaxT set to 3.00D-01
 ITU=  0  0
 Use linear search instead of GDIIS.
     Eigenvalues ---    0.00235   0.00296   0.00383   0.00401   0.00483
     Eigenvalues ---    0.00558   0.01324   0.01374   0.01378   0.01392
     Eigenvalues ---    0.01513   0.03850   0.04355   0.04447   0.04907
     Eigenvalues ---    0.05005   0.05322   0.05486   0.05898   0.06529
     Eigenvalues ---    0.07036   0.07280   0.07498   0.08959   0.10854
     Eigenvalues ---    0.11156   0.13534   0.13855   0.15883   0.16000
     Eigenvalues ---    0.16000   0.16000   0.16008   0.16042   0.17104
     Eigenvalues ---    0.19414   0.19475   0.20040   0.21722   0.22081
     Eigenvalues ---    0.22305   0.24699   0.28189   0.28659   0.29258
     Eigenvalues ---    0.29512   0.30678   0.33922   0.34096   0.34163
     Eigenvalues ---    0.34197   0.34241   0.34377   0.34446   0.39084
     Eigenvalues ---    0.41464   0.41793   0.41982   0.42420   0.44608
     Eigenvalues ---    0.52708   0.52853   0.52880   0.52908   0.53025
     Eigenvalues ---    0.88571
 RFO step:  Lambda=-5.59189303D-03 EMin= 2.35066189D-03
 Quartic linear search produced a step of -0.24203.
 Iteration  1 RMS(Cart)=  0.12916362 RMS(Int)=  0.00426670
 Iteration  2 RMS(Cart)=  0.00744335 RMS(Int)=  0.00052283
 Iteration  3 RMS(Cart)=  0.00001603 RMS(Int)=  0.00052273
 Iteration  4 RMS(Cart)=  0.00000001 RMS(Int)=  0.00052273
 Variable       Old X    -DE/DX   Delta X   Delta X   Delta X     New X
                                 (Linear)    (Quad)   (Total)
    R1        2.68058  -0.00437  -0.00228  -0.00313  -0.00541   2.67517
    R2        2.08294   0.00174  -0.00424   0.01174   0.00751   2.09045
    R3        2.06394   0.00645   0.00001   0.01384   0.01385   2.07779
    R4        2.87524   0.00057  -0.00222   0.00553   0.00331   2.87855
    R5        1.83125  -0.00014   0.00157  -0.00323  -0.00166   1.82959
    R6        2.29642  -0.00642   0.00766  -0.02045  -0.01280   2.28362
    R7        2.93836  -0.00684  -0.01248   0.00615  -0.00633   2.93203
    R8        2.91925  -0.00775  -0.00392  -0.01262  -0.01653   2.90271
    R9        2.07324  -0.00014  -0.00085   0.00129   0.00044   2.07368
   R10        2.71055   0.00012  -0.00555   0.01083   0.00528   2.71583
   R11        2.89339   0.00497   0.00413   0.00525   0.00938   2.90277
   R12        2.07951   0.00083  -0.00125   0.00419   0.00293   2.08244
   R13        2.71043   0.00004  -0.00444   0.00856   0.00411   2.71454
   R14        2.88884  -0.00168   0.00012  -0.00444  -0.00433   2.88451
   R15        2.06997  -0.00032   0.00015  -0.00097  -0.00082   2.06915
   R16        2.71101  -0.00080  -0.00332   0.00491   0.00159   2.71260
   R17        2.07842   0.00168  -0.00220   0.00778   0.00558   2.08400
   R18        2.07542  -0.00074  -0.00223   0.00261   0.00038   2.07580
   R19        2.70183  -0.00132  -0.00262   0.00266   0.00004   2.70186
   R20        1.83071  -0.00018   0.00164  -0.00343  -0.00179   1.82892
   R21        1.82806  -0.00131   0.00246  -0.00661  -0.00415   1.82391
   R22        1.82611   0.00025   0.00256  -0.00460  -0.00204   1.82407
   R23        1.82970  -0.00182   0.00191  -0.00628  -0.00436   1.82534
    A1        1.92932   0.00264  -0.00831   0.03432   0.02605   1.95538
    A2        1.93459   0.00344  -0.00985   0.04151   0.03170   1.96629
    A3        1.89988   0.00014   0.00656  -0.00651   0.00004   1.89991
    A4        1.91244  -0.00316   0.00342  -0.03573  -0.03266   1.87978
    A5        1.89416  -0.00122   0.00394  -0.01542  -0.01168   1.88248
    A6        1.89258  -0.00201   0.00446  -0.02017  -0.01592   1.87666
    A7        1.87138  -0.00118   0.00116  -0.00739  -0.00623   1.86516
    A8        2.07973   0.01449   0.00926   0.02780   0.03465   2.11439
    A9        2.15266  -0.01771  -0.02653  -0.00173  -0.03056   2.12209
   A10        2.04957   0.00327   0.01750  -0.02055  -0.00526   2.04431
   A11        2.13733  -0.01645  -0.02946  -0.02180  -0.05167   2.08566
   A12        1.81004   0.00554   0.01441  -0.00245   0.01093   1.82097
   A13        1.86155   0.00184   0.00622  -0.01694  -0.01013   1.85142
   A14        1.86060   0.00135   0.01652  -0.02074  -0.00545   1.85515
   A15        1.88409   0.00891   0.00133   0.02046   0.02152   1.90560
   A16        1.90053  -0.00040  -0.00804   0.05122   0.04328   1.94381
   A17        1.94003   0.00049   0.01828  -0.02776  -0.00928   1.93075
   A18        1.88256   0.00140  -0.00567   0.00601   0.00106   1.88362
   A19        1.97258  -0.00820  -0.01074  -0.01994  -0.02972   1.94286
   A20        1.86567  -0.00133   0.00284   0.00430   0.00681   1.87249
   A21        1.88058   0.00685   0.00906   0.01705   0.02568   1.90626
   A22        1.91968   0.00108  -0.01511   0.02192   0.00689   1.92656
   A23        1.94855   0.00188   0.00086   0.00804   0.00875   1.95730
   A24        1.91773  -0.00134   0.00359  -0.01499  -0.01126   1.90648
   A25        1.88169  -0.00049   0.00898  -0.01425  -0.00529   1.87640
   A26        1.88171  -0.00018   0.00063  -0.00204  -0.00134   1.88037
   A27        1.87837   0.00101  -0.02349   0.04880   0.02522   1.90359
   A28        1.95631  -0.00079   0.00819  -0.02433  -0.01583   1.94047
   A29        1.90400  -0.00046   0.00859  -0.01836  -0.00984   1.89416
   A30        1.93692  -0.00291   0.00380  -0.02434  -0.02061   1.91631
   A31        1.86324  -0.00016   0.00870  -0.01589  -0.00719   1.85605
   A32        1.90680   0.00029   0.00102  -0.00293  -0.00192   1.90488
   A33        1.93042   0.00093  -0.01218   0.02932   0.01728   1.94770
   A34        1.92224   0.00227  -0.01046   0.03179   0.02135   1.94359
   A35        1.87048   0.00151  -0.00059   0.00790   0.00731   1.87779
   A36        1.89468  -0.00109  -0.00333   0.00080  -0.00253   1.89215
   A37        1.89070  -0.00008  -0.00156   0.00234   0.00079   1.89148
   A38        1.89941  -0.00089  -0.00389   0.00268  -0.00122   1.89819
    D1        1.06580   0.00015  -0.00450   0.00877   0.00419   1.06999
    D2       -1.05831   0.00003   0.00269   0.00264   0.00542  -1.05290
    D3       -3.13847   0.00033  -0.00076   0.00643   0.00566  -3.13281
    D4       -0.00039   0.00084  -0.00706   0.04108   0.03473   0.03434
    D5       -3.08746  -0.00042  -0.01398  -0.08160  -0.09630   3.09943
    D6        2.10037   0.00339  -0.01086   0.06964   0.05931   2.15968
    D7       -0.98670   0.00213  -0.01777  -0.05305  -0.07172  -1.05842
    D8       -2.10659  -0.00221  -0.00170   0.00668   0.00588  -2.10071
    D9        1.08952  -0.00348  -0.00862  -0.11600  -0.12514   0.96438
   D10       -0.00469   0.00292  -0.00516   0.10452   0.09875   0.09406
   D11        2.09405  -0.00113   0.00890   0.06005   0.06833   2.16237
   D12       -2.18393   0.00162   0.00934   0.10946   0.11766  -2.06627
   D13       -3.09264   0.00134  -0.01185  -0.01758  -0.02846  -3.12110
   D14       -0.99390  -0.00272   0.00221  -0.06205  -0.05888  -1.05278
   D15        1.01131   0.00003   0.00265  -0.01265  -0.00955   1.00176
   D16        3.05870  -0.00104   0.01505   0.07058   0.08595  -3.13854
   D17        1.01875  -0.00054   0.00462   0.07728   0.08227   1.10102
   D18       -1.10731   0.00238   0.03267   0.05821   0.09163  -1.01567
   D19        0.98411   0.00152   0.00277   0.10749   0.10981   1.09392
   D20       -1.05583   0.00202  -0.00766   0.11418   0.10613  -0.94970
   D21        3.10129   0.00495   0.02039   0.09512   0.11550  -3.06639
   D22       -1.05544  -0.00314   0.00270   0.04837   0.05072  -1.00472
   D23       -3.09538  -0.00264  -0.00772   0.05507   0.04704  -3.04834
   D24        1.06174   0.00028   0.02033   0.03600   0.05641   1.11815
   D25       -1.91479  -0.00462  -0.02269   0.06645   0.04377  -1.87102
   D26        2.04187   0.00859   0.00902   0.09185   0.10127   2.14314
   D27        0.02840   0.00246  -0.00687   0.07873   0.07145   0.09984
   D28        3.13131  -0.00240   0.00634  -0.00515   0.00095   3.13226
   D29        1.04446  -0.00249   0.00256   0.00217   0.00452   1.04898
   D30       -1.09222  -0.00040  -0.01634   0.05016   0.03367  -1.05856
   D31       -1.10163  -0.00124   0.01184  -0.01046   0.00118  -1.10045
   D32        3.09470  -0.00133   0.00806  -0.00314   0.00475   3.09945
   D33        0.95801   0.00076  -0.01084   0.04485   0.03390   0.99191
   D34        0.96111   0.00286   0.00028   0.02625   0.02685   0.98796
   D35       -1.12574   0.00277  -0.00350   0.03357   0.03042  -1.09532
   D36        3.02076   0.00486  -0.02240   0.08156   0.05957   3.08033
   D37        2.11149  -0.00103  -0.02424   0.01032  -0.01422   2.09727
   D38       -2.02124  -0.00090  -0.00157  -0.02592  -0.02763  -2.04887
   D39        0.00643   0.00194  -0.00156   0.00053  -0.00059   0.00584
   D40        1.09636  -0.00002   0.00061   0.01023   0.01089   1.10725
   D41       -1.00542   0.00174  -0.00912   0.04101   0.03186  -0.97355
   D42       -3.10036   0.00075  -0.00402   0.02611   0.02204  -3.07832
   D43       -3.07882  -0.00065   0.00602  -0.00474   0.00141  -3.07741
   D44        1.10259   0.00111  -0.00370   0.02604   0.02238   1.12497
   D45       -0.99235   0.00012   0.00139   0.01114   0.01256  -0.97979
   D46       -0.96528  -0.00112   0.00335  -0.00725  -0.00391  -0.96918
   D47       -3.06705   0.00065  -0.00638   0.02352   0.01706  -3.04999
   D48        1.12120  -0.00035  -0.00129   0.00863   0.00724   1.12843
   D49        2.16691   0.00034   0.00367   0.05342   0.05690   2.22381
   D50       -2.01198   0.00286  -0.00364   0.08239   0.07879  -1.93320
[...]
    24  H    2.441061   2.818741   3.450887   2.188277   2.990794
                   16         17         18         19         20
    16  H    0.000000
    17  O    2.054409   0.000000
    18  H    2.682636   0.978427   0.000000
    19  H    2.388000   3.358819   3.905226   0.000000
    20  O    3.317163   2.899810   3.132488   2.092862   0.000000
    21  H    4.041223   3.822417   4.097888   2.276788   0.968533
    22  H    3.060621   2.470585   3.313590   3.040515   2.764438
    23  O    2.590866   3.448949   4.383114   2.506276   3.650491
    24  H    3.501439   4.152728   5.114260   3.365679   4.351482
                   21         22         23         24
    21  H    0.000000
    22  H    3.204429   0.000000
    23  O    3.922095   2.087806   0.000000
    24  H    4.521994   2.369698   0.972362   0.000000
 Stoichiometry    C6H12O6
 Framework group  C1[X(C6H12O6)]
 Deg. of freedom    66
 Full point group                 C1      NOp   1
 Largest Abelian subgroup         C1      NOp   1
 Largest concise Abelian subgroup C1      NOp   1
                         Standard orientation:                         
 ---------------------------------------------------------------------
 Center     Atomic      Atomic             Coordinates (Angstroms)
 Number     Number       Type             X           Y           Z
 ---------------------------------------------------------------------
      1          6           0        2.528197   -1.058663    0.453136
      2          8           0        3.927813   -1.132261    0.319234
      3          1           0        4.195248   -2.039562    0.528533
      4          1           0        2.188330   -1.252196    1.485162
      5          1           0        2.004378   -1.779517   -0.198738
      6          6           0        2.049733    0.321787    0.035819
      7          8           0        2.756741    1.106273   -0.563240
      8          6           0        0.612334    0.730605    0.397178
      9          6           0       -0.407521   -0.292810   -0.140463
     10          6           0       -1.843006    0.168318    0.142545
     11          6           0       -2.898528   -0.721496   -0.510960
     12          1           0       -2.740060   -1.769481   -0.206588
     13          1           0       -2.836845   -0.652015   -1.606824
     14          8           0       -4.155763   -0.239653   -0.036571
     15          1           0       -4.846027   -0.868608   -0.292418
     16          1           0        0.516271    0.729251    1.494255
     17          8           0        0.360556    2.019923   -0.096505
     18          1           0        1.153784    2.252387   -0.620023
     19          1           0       -0.256600   -1.244894    0.395178
     20          8           0       -0.148239   -0.445448   -1.535940
     21          1           0       -0.617622   -1.231169   -1.852763
     22          1           0       -1.962103    1.190429   -0.241367
     23          8           0       -2.003125    0.128009    1.555440
     24          1           0       -2.949889    0.284181    1.712721
 ---------------------------------------------------------------------
 Rotational constants (GHZ):      1.8892467      0.4309698      0.4113324

 **********************************************************************

            Population analysis using the SCF density.

 **********************************************************************

 Orbital symmetries:
       Occupied  (A) (A) (A) (A) (A) (A) (A) (A) (A) (A) (A) (A)
                 (A) (A) (A) (A) (A) (A) (A) (A) (A) (A) (A) (A)
                 (A) (A) (A) (A) (A) (A) (A) (A) (A) (A) (A) (A)
                 (A) (A) (A) (A) (A) (A) (A) (A) (A) (A) (A) (A)
       Virtual   (A) (A) (A) (A) (A) (A) (A) (A) (A) (A) (A) (A)
                 (A) (A) (A) (A) (A) (A) (A) (A) (A) (A) (A) (A)
                 (A) (A) (A) (A) (A) (A) (A) (A) (A) (A) (A) (A)
                 (A) (A) (A) (A) (A) (A) (A) (A) (A) (A) (A) (A)
                 (A) (A) (A) (A) (A) (A) (A) (A) (A) (A) (A) (A)
                 (A) (A) (A) (A) (A) (A) (A) (A) (A) (A) (A) (A)
                 (A) (A) (A) (A) (A) (A) (A) (A) (A) (A) (A) (A)
                 (A) (A) (A) (A) (A) (A) (A) (A) (A) (A) (A) (A)
                 (A) (A) (A) (A) (A) (A) (A) (A) (A) (A) (A) (A)
                 (A) (A) (A) (A) (A) (A) (A) (A) (A) (A) (A) (A)
                 (A) (A) (A) (A) (A) (A) (A) (A) (A) (A) (A) (A)
                 (A) (A) (A) (A) (A) (A) (A) (A) (A) (A) (A) (A)
                 (A) (A) (A) (A) (A) (A) (A) (A) (A) (A) (A) (A)
 The electronic state is 1-A.
 Alpha  occ. eigenvalues --  -19.16675 -19.16299 -19.15722 -19.15405 -19.14251
 Alpha  occ. eigenvalues --  -19.13247 -10.28191 -10.25320 -10.24953 -10.24580
 Alpha  occ. eigenvalues --  -10.24103 -10.23467  -1.06463  -1.04560  -1.03622
 Alpha  occ. eigenvalues --   -1.02904  -1.01075  -1.00350  -0.78355  -0.75317
 Alpha  occ. eigenvalues --   -0.71260  -0.64879  -0.59011  -0.55749  -0.55417
 Alpha  occ. eigenvalues --   -0.53596  -0.52381  -0.49592  -0.48996  -0.47879
 Alpha  occ. eigenvalues --   -0.47445  -0.45605  -0.43664  -0.42525  -0.41910
 Alpha  occ. eigenvalues --   -0.40606  -0.36656  -0.36546  -0.36050  -0.35198
 Alpha  occ. eigenvalues --   -0.34152  -0.33514  -0.29380  -0.28892  -0.28129
 Alpha  occ. eigenvalues --   -0.26811  -0.26163  -0.25884
 Alpha virt. eigenvalues --   -0.02091   0.03928   0.05315   0.06401   0.09837
 Alpha virt. eigenvalues --    0.11180   0.12782   0.13376   0.14643   0.15352
 Alpha virt. eigenvalues --    0.16672   0.16962   0.17334   0.18992   0.20435
 Alpha virt. eigenvalues --    0.21283   0.22493   0.23121   0.24713   0.27778
 Alpha virt. eigenvalues --    0.28558   0.31612   0.35093   0.37836   0.53090
 Alpha virt. eigenvalues --    0.53191   0.54199   0.55613   0.56011   0.56841
 Alpha virt. eigenvalues --    0.59347   0.61383   0.62733   0.63482   0.66861
 Alpha virt. eigenvalues --    0.67949   0.69688   0.70230   0.71616   0.74523
 Alpha virt. eigenvalues --    0.76215   0.78768   0.79907   0.80463   0.80573
 Alpha virt. eigenvalues --    0.82386   0.82912   0.84273   0.85009   0.86717
 Alpha virt. eigenvalues --    0.86991   0.88856   0.90413   0.91391   0.92865
 Alpha virt. eigenvalues --    0.94580   0.96993   0.97549   0.97639   0.98475
 Alpha virt. eigenvalues --    1.01703   1.02784   1.03232   1.04941   1.05646
 Alpha virt. eigenvalues --    1.07243   1.11881   1.14609   1.15117   1.18535
 Alpha virt. eigenvalues --    1.19564   1.22965   1.28046   1.30241   1.30871
 Alpha virt. eigenvalues --    1.33604   1.35687   1.36558   1.37980   1.44192
 Alpha virt. eigenvalues --    1.48175   1.49822   1.55787   1.56863   1.60025
 Alpha virt. eigenvalues --    1.61509   1.64568   1.65550   1.67514   1.71205
 Alpha virt. eigenvalues --    1.71912   1.72562   1.73710   1.75878   1.76260
 Alpha virt. eigenvalues --    1.77905   1.80245   1.81952   1.83839   1.85170
 Alpha virt. eigenvalues --    1.88317   1.91607   1.92191   1.94062   1.97645
 Alpha virt. eigenvalues --    1.98186   2.00469   2.04487   2.06329   2.07136
 Alpha virt. eigenvalues --    2.09153   2.11095   2.14926   2.15923   2.16080
 Alpha virt. eigenvalues --    2.19663   2.24634   2.27658   2.28419   2.32842
 Alpha virt. eigenvalues --    2.35228   2.37328   2.38037   2.40031   2.45402
 Alpha virt. eigenvalues --    2.46603   2.48644   2.50845   2.51439   2.53089
 Alpha virt. eigenvalues --    2.57140   2.58995   2.62496   2.63760   2.70290
 Alpha virt. eigenvalues --    2.78766   2.80124   2.86894   2.88013   2.92346
 Alpha virt. eigenvalues --    2.96646   2.97930   3.00798   3.05838   3.70605
 Alpha virt. eigenvalues --    3.77457   3.78502   3.84921   3.88718   4.10390
 Alpha virt. eigenvalues --    4.21313   4.28386   4.38836   4.48287   4.51897
 Alpha virt. eigenvalues --    4.66237
          Condensed to atoms (all electrons):
              1          2          3          4          5          6
     1  C    5.119303   0.247117  -0.021602   0.351945   0.341154   0.252029
     2  O    0.247117   8.210826   0.233501  -0.037489  -0.032692  -0.033400
     3  H   -0.021602   0.233501   0.390856  -0.003329  -0.004818   0.006066
     4  H    0.351945  -0.037489  -0.003329   0.623880  -0.050283  -0.043532
     5  H    0.341154  -0.032692  -0.004818  -0.050283   0.611977  -0.028146
     6  C    0.252029  -0.033400   0.006066  -0.043532  -0.028146   4.656980
     7  O   -0.077674   0.002918   0.000146   0.001592  -0.001356   0.562621
     8  C   -0.112126   0.001741  -0.000183   0.010502  -0.000442   0.280604
     9  C    0.006462   0.000005   0.000007  -0.003503   0.001505  -0.028939
    10  C   -0.000412   0.000000   0.000000  -0.000039   0.000495   0.004146
    11  C    0.000010   0.000000   0.000000   0.000000  -0.000020  -0.000024
    12  H    0.000000   0.000000   0.000000  -0.000001  -0.000003  -0.000004
    13  H    0.000000   0.000000   0.000000   0.000000  -0.000002  -0.000005
    14  O    0.000000   0.000000   0.000000   0.000000   0.000000   0.000000
    15  H    0.000000   0.000000   0.000000   0.000000   0.000000   0.000000
    16  H    0.001730  -0.000062   0.000002   0.001927   0.000425  -0.035698
    17  O    0.002491  -0.000007   0.000001   0.000023  -0.000017  -0.026464
    18  H    0.003259  -0.000027   0.000001  -0.000064  -0.000078  -0.008696
    19  H    0.005121   0.000018  -0.000003   0.001047  -0.001092  -0.009783
    20  O   -0.004008   0.000005   0.000000   0.000207   0.006117   0.008959
    21  H    0.000076  -0.000001   0.000000  -0.000010  -0.000068  -0.000051
    22  H   -0.000014   0.000000   0.000000  -0.000001   0.000001   0.000097
    23  O   -0.000009   0.000000   0.000000   0.000000  -0.000008   0.000134
    24  H    0.000000   0.000000   0.000000   0.000000   0.000001   0.000003
              7          8          9         10         11         12
     1  C   -0.077674  -0.112126   0.006462  -0.000412   0.000010   0.000000
     2  O    0.002918   0.001741   0.000005   0.000000   0.000000   0.000000
     3  H    0.000146  -0.000183   0.000007   0.000000   0.000000   0.000000
     4  H    0.001592   0.010502  -0.003503  -0.000039   0.000000  -0.000001
     5  H   -0.001356  -0.000442   0.001505   0.000495  -0.000020  -0.000003
     6  C    0.562621   0.280604  -0.028939   0.004146  -0.000024  -0.000004
     7  O    7.993229  -0.067965  -0.000914  -0.000080   0.000000   0.000000
     8  C   -0.067965   5.074221   0.289571  -0.036711   0.005085  -0.000129
     9  C   -0.000914   0.289571   5.031164   0.332409  -0.033266  -0.003145
    10  C   -0.000080  -0.036711   0.332409   4.924371   0.338539  -0.033449
    11  C    0.000000   0.005085  -0.033266   0.338539   4.970255   0.339683
    12  H    0.000000  -0.000129  -0.003145  -0.033449   0.339683   0.663043
    13  H    0.000000  -0.000316  -0.003633  -0.031927   0.333227  -0.052756
    14  O    0.000000  -0.000028   0.002236  -0.049480   0.243713  -0.038349
    15  H    0.000000   0.000003  -0.000228   0.005839  -0.021729  -0.005818
    16  H    0.000383   0.363411  -0.065911  -0.007849   0.000333  -0.000011
    17  O   -0.020133   0.286716  -0.061075  -0.008491   0.000126  -0.000003
    18  H    0.048333  -0.059087   0.003127  -0.000181  -0.000002   0.000000
    19  H   -0.000009  -0.035730   0.324706  -0.055490  -0.010111   0.006712
    20  O   -0.000573  -0.054075   0.210075  -0.042834  -0.000374  -0.000174
    21  H    0.000006   0.007092  -0.022326  -0.004648   0.004790   0.000210
    22  H    0.000002  -0.015406  -0.040797   0.358879  -0.055285   0.006970
    23  O    0.000000   0.000995  -0.043817   0.203207  -0.035198   0.000174
    24  H    0.000000  -0.000194   0.006576  -0.028661  -0.012665  -0.000349
             13         14         15         16         17         18
     1  C    0.000000   0.000000   0.000000   0.001730   0.002491   0.003259
     2  O    0.000000   0.000000   0.000000  -0.000062  -0.000007  -0.000027
     3  H    0.000000   0.000000   0.000000   0.000002   0.000001   0.000001
     4  H    0.000000   0.000000   0.000000   0.001927   0.000023  -0.000064
     5  H   -0.000002   0.000000   0.000000   0.000425  -0.000017  -0.000078
     6  C   -0.000005   0.000000   0.000000  -0.035698  -0.026464  -0.008696
     7  O    0.000000   0.000000   0.000000   0.000383  -0.020133   0.048333
     8  C   -0.000316  -0.000028   0.000003   0.363411   0.286716  -0.059087
     9  C   -0.003633   0.002236  -0.000228  -0.065911  -0.061075   0.003127
    10  C   -0.031927  -0.049480   0.005839  -0.007849  -0.008491  -0.000181
    11  C    0.333227   0.243713  -0.021729   0.000333   0.000126  -0.000002
    12  H   -0.052756  -0.038349  -0.005818  -0.000011  -0.000003   0.000000
    13  H    0.651287  -0.037352  -0.001492  -0.000010   0.000010   0.000000
    14  O   -0.037352   8.253211   0.236655  -0.000001   0.000000   0.000000
    15  H   -0.001492   0.236655   0.384461   0.000000   0.000000   0.000000
    16  H   -0.000010  -0.000001   0.000000   0.588221  -0.039451   0.006161
    17  O    0.000010   0.000000   0.000000  -0.039451   8.254832   0.233149
    18  H    0.000000   0.000000   0.000000   0.006161   0.233149   0.359130
    19  H    0.000853  -0.000069   0.000002   0.004672   0.003627  -0.000161
    20  O    0.007652   0.000063   0.000006   0.003248   0.002574   0.000743
    21  H    0.002224  -0.000039   0.000001  -0.000259  -0.000124   0.000000
    22  H   -0.001217   0.001062  -0.000222   0.000949   0.015116  -0.000253
    23  O    0.004194  -0.007073   0.000342   0.008714  -0.000026  -0.000017
    24  H    0.000779   0.027328  -0.001185  -0.000185  -0.000018   0.000001
             19         20         21         22         23         24
     1  C    0.005121  -0.004008   0.000076  -0.000014  -0.000009   0.000000
     2  O    0.000018   0.000005  -0.000001   0.000000   0.000000   0.000000
     3  H   -0.000003   0.000000   0.000000   0.000000   0.000000   0.000000
     4  H    0.001047   0.000207  -0.000010  -0.000001   0.000000   0.000000
     5  H   -0.001092   0.006117  -0.000068   0.000001  -0.000008   0.000001
     6  C   -0.009783   0.008959  -0.000051   0.000097   0.000134   0.000003
     7  O   -0.000009  -0.000573   0.000006   0.000002   0.000000   0.000000
     8  C   -0.035730  -0.054075   0.007092  -0.015406   0.000995  -0.000194
     9  C    0.324706   0.210075  -0.022326  -0.040797  -0.043817   0.006576
    10  C   -0.055490  -0.042834  -0.004648   0.358879   0.203207  -0.028661
    11  C   -0.010111  -0.000374   0.004790  -0.055285  -0.035198  -0.012665
    12  H    0.006712  -0.000174   0.000210   0.006970   0.000174  -0.000349
    13  H    0.000853   0.007652   0.002224  -0.001217   0.004194   0.000779
    14  O   -0.000069   0.000063  -0.000039   0.001062  -0.007073   0.027328
    15  H    0.000002   0.000006   0.000001  -0.000222   0.000342  -0.001185
    16  H    0.004672   0.003248  -0.000259   0.000949   0.008714  -0.000185
    17  O    0.003627   0.002574  -0.000124   0.015116  -0.000026  -0.000018
    18  H   -0.000161   0.000743   0.000000  -0.000253  -0.000017   0.000001
    19  H    0.676990  -0.035662  -0.007663   0.007695   0.007318  -0.000274
    20  O   -0.035662   8.291952   0.233020   0.002548   0.001386  -0.000112
    21  H   -0.007663   0.233020   0.388902  -0.000345   0.000026   0.000004
    22  H    0.007695   0.002548  -0.000345   0.589920  -0.037063  -0.001503
    23  O    0.007318   0.001386   0.000026  -0.037063   8.315066   0.233607
    24  H   -0.000274  -0.000112   0.000004  -0.001503   0.233607   0.364489
 Mulliken atomic charges:
              1
     1  C   -0.114853
     2  O   -0.592451
     3  H    0.399356
     4  H    0.147127
     5  H    0.157352
     6  C    0.443106
     7  O   -0.440526
     8  C    0.062452
     9  C    0.099710
    10  C    0.132370
    11  C   -0.067088
    12  H    0.117398
    13  H    0.128485
    14  O   -0.631877
    15  H    0.403364
    16  H    0.169263
    17  O   -0.642855
    18  H    0.414662
    19  H    0.117287
    20  O   -0.630744
    21  H    0.399182
    22  H    0.168868
    23  O   -0.651951
    24  H    0.412360
 Sum of Mulliken atomic charges =   0.00000
 Mulliken charges with hydrogens summed into heavy atoms:
              1
     1  C    0.189627
     2  O   -0.193095
     6  C    0.443106
     7  O   -0.440526
     8  C    0.231715
     9  C    0.216997
    10  C    0.301237
    11  C    0.178796
    14  O   -0.228512
    17  O   -0.228193
    20  O   -0.231561
    23  O   -0.239591
 Sum of Mulliken charges with hydrogens summed into heavy atoms =   0.00000
 Electronic spatial extent (au):  <R**2>=           2742.2214
 Charge=              0.0000 electrons
 Dipole moment (field-independent basis, Debye):
    X=             -3.1546    Y=             -5.9638    Z=              0.1191  Tot=              6.7478
 Quadrupole moment (field-independent basis, Debye-Ang):
   XX=            -66.2066   YY=            -64.2513   ZZ=            -70.6933
   XY=             -1.4727   XZ=              8.1463   YZ=              1.6921
 Traceless Quadrupole moment (field-independent basis, Debye-Ang):
   XX=              0.8438   YY=              2.7991   ZZ=             -3.6429
   XY=             -1.4727   XZ=              8.1463   YZ=              1.6921
 Octapole moment (field-independent basis, Debye-Ang**2):
  XXX=            -95.4495  YYY=            -19.3803  ZZZ=             -3.6213  XYY=             14.7824
  XXY=            -62.0389  XXZ=              7.7524  XZZ=             -3.9940  YZZ=             -2.9257
  YYZ=             -5.3624  XYZ=            -12.1815
 Hexadecapole moment (field-independent basis, Debye-Ang**3):
 XXXX=          -2241.9409 YYYY=           -413.4048 ZZZZ=           -298.0807 XXXY=             -0.2171
 XXXZ=             61.7393 YYYX=            -39.0545 YYYZ=            -12.8037 ZZZX=             -6.1650
 ZZZY=             11.0719 XXYY=           -366.3292 XXZZ=           -438.3485 YYZZ=           -112.5449
 XXYZ=              4.5123 YYXZ=             13.6128 ZZXY=             -1.3609
 N-N= 7.827397608368D+02 E-N=-3.177244823167D+03  KE= 6.812579234954D+02

 Test job not archived.
 1\1\GINC-TERMINUS\FOpt\RB3LYP\6-31G(d)\C6H12O6\FRODOX\04-Jan-2018\0\\#
 B3LYP/6-31G* fopt test\\Sugars/S-R-R-Fructuose.xyz\\0,1\C,-0.186480127
 1,-0.3779262581,0.1585732642\O,-0.338264358,-0.1642248562,1.541890542\
 H,0.4094547216,-0.5888531947,1.9881304042\H,-0.2282280614,-1.446468049
 3,-0.1144065756\H,0.7709861368,0.0152512931,-0.2256477176\C,-1.2834277
 858,0.3577286305,-0.5925870694\O,-1.9869073722,1.1966920433,-0.0677944
 132\C,-1.5039080657,0.012787643,-2.0745561744\C,-0.201411115,0.1778368
 055,-2.8825176517\C,-0.4497727792,-0.0776679265,-4.3746253577\C,0.7655
 804566,0.2318576123,-5.2464474644\H,1.6396024862,-0.3300209022,-4.8771
 15323\H,0.9933730892,1.3075449681,-5.2228394252\O,0.4115763002,-0.1885
 197062,-6.563952662\H,1.2030358429,-0.163454979,-7.1211517843\H,-1.789
 9119229,-1.0483439283,-2.1453276047\O,-2.5355663692,0.8142913285,-2.58
 71281435\H,-2.7555927926,1.4389168835,-1.8668840644\H,0.5193014524,-0.
 580949536,-2.5347119775\O,0.2825854453,1.4964079004,-2.6275727394\H,1.
 1979981616,1.554479138,-2.9385435366\H,-1.2845581141,0.5565971954,-4.7
 019238035\O,-0.7750347322,-1.4573555148,-4.4938000334\H,-0.7911934974,
 -1.6373995904,-5.4492116887\\Version=EM64L-G09RevB.01\State=1-A\HF=-68
 7.1259125\RMSD=6.507e-09\RMSF=1.041e-05\Dipole=2.4279032,-0.7681427,-0
 .7503851\Quadrupole=2.5613785,-3.908875,1.3474965,0.865505,-0.3669078,
 -5.7255825\PG=C01 [X(C6H12O6)]\\@


 IN THE UNIVERSE THE DIFFICULT THINGS ARE DONE AS IF THEY WERE EASY.

                                                          -- LAO-TSU
 Job cpu time:  0 days  0 hours 35 minutes  3.9 seconds.
 File lengths (MBytes):  RWF=     27 Int=      0 D2E=      0 Chk=      4 Scr=      1
 Normal termination of Gaussian 09 at Thu Jan  4 16:48:24 2018.
