 Entering Gaussian System, Link 0=g09
 Input=S-S-S-Fructuose.inp
 Output=S-S-S-Fructuose.log
 Initial command:
 /usr/local/g09/l1.exe /home/g09scr/Gau-10392.inp -scrdir=/home/g09scr/
 Entering Link 1 = /usr/local/g09/l1.exe PID=     10394.
  
 Copyright (c) 1988,1990,1992,1993,1995,1998,2003,2009,2010,
            Gaussian, Inc.  All Rights Reserved.
  
 This is part of the Gaussian(R) 09 program.  It is based on
 the Gaussian(R) 03 system (copyright 2003, Gaussian, Inc.),
 the Gaussian(R) 98 system (copyright 1998, Gaussian, Inc.),
 the Gaussian(R) 94 system (copyright 1995, Gaussian, Inc.),
 the Gaussian 92(TM) system (copyright 1992, Gaussian, Inc.),
 the Gaussian 90(TM) system (copyright 1990, Gaussian, Inc.),
 the Gaussian 88(TM) system (copyright 1988, Gaussian, Inc.),
 the Gaussian 86(TM) system (copyright 1986, Carnegie Mellon
 University), and the Gaussian 82(TM) system (copyright 1983,
 Carnegie Mellon University). Gaussian is a federally registered
 trademark of Gaussian, Inc.
  
 This software contains proprietary and confidential information,
 including trade secrets, belonging to Gaussian, Inc.
  
 This software is provided under written license and may be
 used, copied, transmitted, or stored only in accord with that
 written license.
  
 The following legend is applicable only to US Government
 contracts under FAR:
  
                    RESTRICTED RIGHTS LEGEND
  
 Use, reproduction and disclosure by the US Government is
 subject to restrictions as set forth in subparagraphs (a)
 and (c) of the Commercial Computer Software - Restricted
 Rights clause in FAR 52.227-19.
  
 Gaussian, Inc.
 340 Quinnipiac St., Bldg. 40, Wallingford CT 06492
  
  
 ---------------------------------------------------------------
 Warning -- This program may not be used in any manner that
 competes with the business of Gaussian, Inc. or will provide
 assistance to any competitor of Gaussian, Inc.  The licensee
 of this program is prohibited from giving any competitor of
 Gaussian, Inc. access to this program.  By using this program,
 the user acknowledges that Gaussian, Inc. is engaged in the
 business of creating and licensing software in the field of
 computational chemistry and represents and warrants to the
 licensee that it is not a competitor of Gaussian, Inc. and that
 it will not use this program in any manner prohibited above.
 ---------------------------------------------------------------
  

 Cite this work as:
 Gaussian 09, Revision B.01,
 M. J. Frisch, G. W. Trucks, H. B. Schlegel, G. E. Scuseria, 
 M. A. Robb, J. R. Cheeseman, G. Scalmani, V. Barone, B. Mennucci, 
 G. A. Petersson, H. Nakatsuji, M. Caricato, X. Li, H. P. Hratchian, 
 A. F. Izmaylov, J. Bloino, G. Zheng, J. L. Sonnenberg, M. Hada, 
 M. Ehara, K. Toyota, R. Fukuda, J. Hasegawa, M. Ishida, T. Nakajima, 
 Y. Honda, O. Kitao, H. Nakai, T. Vreven, J. A. Montgomery, Jr., 
 J. E. Peralta, F. Ogliaro, M. Bearpark, J. J. Heyd, E. Brothers, 
 K. N. Kudin, V. N. Staroverov, T. Keith, R. Kobayashi, J. Normand, 
 K. Raghavachari, A. Rendell, J. C. Burant, S. S. Iyengar, J. Tomasi, 
 M. Cossi, N. Rega, J. M. Millam, M. Klene, J. E. Knox, J. B. Cross, 
 V. Bakken, C. Adamo, J. Jaramillo, R. Gomperts, R. E. Stratmann, 
 O. Yazyev, A. J. Austin, R. Cammi, C. Pomelli, J. W. Ochterski, 
 R. L. Martin, K. Morokuma, V. G. Zakrzewski, G. A. Voth, 
 P. Salvador, J. J. Dannenberg, S. Dapprich, A. D. Daniels, 
 O. Farkas, J. B. Foresman, J. V. Ortiz, J. Cioslowski, 
 and D. J. Fox, Gaussian, Inc., Wallingford CT, 2010.
 
 ******************************************
 Gaussian 09:  EM64L-G09RevB.01 12-Aug-2010
                 4-Jan-2018 
 ******************************************
 %nproc=4
 Will use up to    4 processors via shared memory.
 %mem=60gb
 -----------------------
 #B3LYP/6-31G* fopt test
 -----------------------
 1/14=-1,18=20,19=15,26=3,38=1/1,3;
 2/9=110,12=2,14=103,17=6,18=5,40=1/2;
 3/5=1,6=6,7=1,11=2,16=1,25=1,30=1,71=1,74=-5/1,2,3;
 4//1;
 5/5=2,38=5/2;
 6/7=2,8=2,9=2,10=2,28=1/1;
 7//1,2,3,16;
 1/14=-1,18=20,19=15/3(2);
 2/9=110/2;
 99//99;
 2/9=110/2;
 3/5=1,6=6,7=1,11=2,16=1,25=1,30=1,71=1,74=-5/1,2,3;
 4/5=5,16=3/1;
 5/5=2,38=5/2;
 7//1,2,3,16;
 1/14=-1,18=20,19=15/3(-5);
 2/9=110/2;
 6/7=2,8=2,9=2,10=2,19=2,28=1/1;
 99/9=1/99;
 --------------------------
 Sugars/S-S-S-Fructuose.xyz
 --------------------------
 Symbolic Z-matrix:
 Charge =  0 Multiplicity = 1
 C                     0.        0.        0. 
 O                     0.        0.        1.41352 
 H                     0.92749   0.        1.70592 
 H                     0.51803  -0.89725  -0.34815 
 H                     0.51786   0.89695  -0.34677 
 C                    -1.42147   0.       -0.52884 
 O                    -2.38889  -0.0311    0.23329 
 C                    -1.59838   0.00492  -2.04619 
 C                    -0.29803   0.04539  -2.86317 
 C                    -0.4755    0.02154  -4.39287 
 C                     0.86828   0.04202  -5.12195 
 H                     1.4567   -0.85196  -4.89019 
 H                     1.45026   0.93508  -4.87855 
 O                     0.62907   0.0516   -6.5257 
 H                     1.49772   0.05882  -6.96259 
 H                    -2.18688  -0.88181  -2.30501 
 O                    -2.38065   1.13973  -2.3969 
 H                    -3.22003   0.81821  -2.76877 
 H                     0.31509   0.92124  -2.6144 
 O                     0.44258  -1.09678  -2.44321 
 H                     1.27832  -0.78635  -2.05615 
 H                    -0.89086  -0.93813  -4.72015 
 O                    -1.23294   1.15613  -4.81274 
 H                    -1.99454   0.83438  -5.32464 
 

 GradGradGradGradGradGradGradGradGradGradGradGradGradGradGradGradGradGrad
 Berny optimization.
 Initialization pass.
                           ----------------------------
                           !    Initial Parameters    !
                           ! (Angstroms and Degrees)  !
 --------------------------                            --------------------------
 ! Name  Definition              Value          Derivative Info.                !
 --------------------------------------------------------------------------------
 ! R1    R(1,2)                  1.4135         estimate D2E/DX2                !
 ! R2    R(1,4)                  1.093          estimate D2E/DX2                !
 ! R3    R(1,5)                  1.0922         estimate D2E/DX2                !
 ! R4    R(1,6)                  1.5167         estimate D2E/DX2                !
 ! R5    R(2,3)                  0.9725         estimate D2E/DX2                !
 ! R6    R(6,7)                  1.232          estimate D2E/DX2                !
 ! R7    R(6,8)                  1.5276         estimate D2E/DX2                !
 ! R8    R(8,9)                  1.5362         estimate D2E/DX2                !
 ! R9    R(8,16)                 1.0953         estimate D2E/DX2                !
 ! R10   R(8,17)                 1.4222         estimate D2E/DX2                !
 ! R11   R(9,10)                 1.5401         estimate D2E/DX2                !
 ! R12   R(9,19)                 1.0977         estimate D2E/DX2                !
 ! R13   R(9,20)                 1.4246         estimate D2E/DX2                !
 ! R14   R(10,11)                1.529          estimate D2E/DX2                !
 ! R15   R(10,22)                1.0957         estimate D2E/DX2                !
 ! R16   R(10,23)                1.4273         estimate D2E/DX2                !
 ! R17   R(11,12)                1.0951         estimate D2E/DX2                !
 ! R18   R(11,13)                1.0934         estimate D2E/DX2                !
 ! R19   R(11,14)                1.424          estimate D2E/DX2                !
 ! R20   R(14,15)                0.9724         estimate D2E/DX2                !
 ! R21   R(17,18)                0.9727         estimate D2E/DX2                !
 ! R22   R(20,21)                0.9719         estimate D2E/DX2                !
 ! R23   R(23,24)                0.9724         estimate D2E/DX2                !
 ! A1    A(2,1,4)              108.574          estimate D2E/DX2                !
 ! A2    A(2,1,5)              108.511          estimate D2E/DX2                !
 ! A3    A(2,1,6)              110.407          estimate D2E/DX2                !
 ! A4    A(4,1,5)              110.3838         estimate D2E/DX2                !
 ! A5    A(4,1,6)              109.4597         estimate D2E/DX2                !
 ! A6    A(5,1,6)              109.4917         estimate D2E/DX2                !
 ! A7    A(1,2,3)              107.498          estimate D2E/DX2                !
 ! A8    A(1,6,7)              121.351          estimate D2E/DX2                !
 ! A9    A(1,6,8)              117.057          estimate D2E/DX2                !
 ! A10   A(7,6,8)              121.5748         estimate D2E/DX2                !
 ! A11   A(6,8,9)              115.486          estimate D2E/DX2                !
 ! A12   A(6,8,16)             107.118          estimate D2E/DX2                !
 ! A13   A(6,8,17)             108.1312         estimate D2E/DX2                !
 ! A14   A(9,8,16)             110.516          estimate D2E/DX2                !
 ! A15   A(9,8,17)             108.265          estimate D2E/DX2                !
 ! A16   A(16,8,17)            106.9882         estimate D2E/DX2                !
 ! A17   A(8,9,10)             115.484          estimate D2E/DX2                !
 ! A18   A(8,9,19)             111.9187         estimate D2E/DX2                !
 ! A19   A(8,9,20)             105.1981         estimate D2E/DX2                !
 ! A20   A(10,9,19)            107.567          estimate D2E/DX2                !
 ! A21   A(10,9,20)            109.894          estimate D2E/DX2                !
 ! A22   A(19,9,20)            106.4113         estimate D2E/DX2                !
 ! A23   A(9,10,11)            111.847          estimate D2E/DX2                !
 ! A24   A(9,10,22)            110.727          estimate D2E/DX2                !
 ! A25   A(9,10,23)            109.938          estimate D2E/DX2                !
 ! A26   A(11,10,22)           101.6812         estimate D2E/DX2                !
 ! A27   A(11,10,23)           108.3891         estimate D2E/DX2                !
 ! A28   A(22,10,23)           114.0276         estimate D2E/DX2                !
 ! A29   A(10,11,12)           111.125          estimate D2E/DX2                !
 ! A30   A(10,11,13)           111.8759         estimate D2E/DX2                !
 ! A31   A(10,11,14)           108.815          estimate D2E/DX2                !
 ! A32   A(12,11,13)           109.4922         estimate D2E/DX2                !
 ! A33   A(12,11,14)           107.7211         estimate D2E/DX2                !
 ! A34   A(13,11,14)           107.6593         estimate D2E/DX2                !
 ! A35   A(11,14,15)           107.0319         estimate D2E/DX2                !
 ! A36   A(8,17,18)            107.768          estimate D2E/DX2                !
 ! A37   A(9,20,21)            107.96           estimate D2E/DX2                !
 ! A38   A(10,23,24)           107.9061         estimate D2E/DX2                !
 ! D1    D(4,1,2,3)             60.0            estimate D2E/DX2                !
 ! D2    D(5,1,2,3)            -60.0            estimate D2E/DX2                !
 ! D3    D(6,1,2,3)            180.0            estimate D2E/DX2                !
 ! D4    D(2,1,6,7)             -1.694          estimate D2E/DX2                !
 ! D5    D(2,1,6,8)            179.793          estimate D2E/DX2                !
 ! D6    D(4,1,6,7)            117.7715         estimate D2E/DX2                !
 ! D7    D(4,1,6,8)            -60.7415         estimate D2E/DX2                !
 ! D8    D(5,1,6,7)           -121.102          estimate D2E/DX2                !
 ! D9    D(5,1,6,8)             60.385          estimate D2E/DX2                !
 ! D10   D(1,6,8,9)             -1.4906         estimate D2E/DX2                !
 ! D11   D(1,6,8,16)           122.0863         estimate D2E/DX2                !
 ! D12   D(1,6,8,17)          -122.9186         estimate D2E/DX2                !
 ! D13   D(7,6,8,9)            180.0            estimate D2E/DX2                !
 ! D14   D(7,6,8,16)           -56.4232         estimate D2E/DX2                !
 ! D15   D(7,6,8,17)            58.5719         estimate D2E/DX2                !
 ! D16   D(6,8,9,10)           178.812          estimate D2E/DX2                !
 ! D17   D(6,8,9,19)           -57.6707         estimate D2E/DX2                !
 ! D18   D(6,8,9,20)            57.4731         estimate D2E/DX2                !
 ! D19   D(16,8,9,10)           57.041          estimate D2E/DX2                !
 ! D20   D(16,8,9,19)         -179.4417         estimate D2E/DX2                !
 ! D21   D(16,8,9,20)          -64.298          estimate D2E/DX2                !
 ! D22   D(17,8,9,10)          -59.832          estimate D2E/DX2                !
 ! D23   D(17,8,9,19)           63.6853         estimate D2E/DX2                !
 ! D24   D(17,8,9,20)          178.829          estimate D2E/DX2                !
 ! D25   D(6,8,17,18)         -115.0804         estimate D2E/DX2                !
 ! D26   D(9,8,17,18)          119.126          estimate D2E/DX2                !
 ! D27   D(16,8,17,18)           0.0            estimate D2E/DX2                !
 ! D28   D(8,9,10,11)         -179.087          estimate D2E/DX2                !
 ! D29   D(8,9,10,22)          -66.447          estimate D2E/DX2                !
 ! D30   D(8,9,10,23)           60.45           estimate D2E/DX2                !
 ! D31   D(19,9,10,11)          55.1349         estimate D2E/DX2                !
 ! D32   D(19,9,10,22)         167.775          estimate D2E/DX2                !
 ! D33   D(19,9,10,23)         -65.3281         estimate D2E/DX2                !
 ! D34   D(20,9,10,11)         -60.315          estimate D2E/DX2                !
 ! D35   D(20,9,10,22)          52.325          estimate D2E/DX2                !
 ! D36   D(20,9,10,23)         179.222          estimate D2E/DX2                !
 ! D37   D(8,9,20,21)         -118.8985         estimate D2E/DX2                !
 ! D38   D(10,9,20,21)         116.1799         estimate D2E/DX2                !
 ! D39   D(19,9,20,21)           0.0            estimate D2E/DX2                !
 ! D40   D(9,10,11,12)          62.961          estimate D2E/DX2                !
 ! D41   D(9,10,11,13)         -59.764          estimate D2E/DX2                !
 ! D42   D(9,10,11,14)        -178.59           estimate D2E/DX2                !
 ! D43   D(22,10,11,12)        -55.2198         estimate D2E/DX2                !
 ! D44   D(22,10,11,13)       -177.9447         estimate D2E/DX2                !
 ! D45   D(22,10,11,14)         63.2292         estimate D2E/DX2                !
 ! D46   D(23,10,11,12)       -175.677          estimate D2E/DX2                !
 ! D47   D(23,10,11,13)         61.598          estimate D2E/DX2                !
 ! D48   D(23,10,11,14)        -57.228          estimate D2E/DX2                !
 ! D49   D(9,10,23,24)        -125.0235         estimate D2E/DX2                !
 ! D50   D(11,10,23,24)        112.4458         estimate D2E/DX2                !
 ! D51   D(22,10,23,24)          0.0            estimate D2E/DX2                !
 ! D52   D(10,11,14,15)       -179.647          estimate D2E/DX2                !
 ! D53   D(12,11,14,15)        -59.077          estimate D2E/DX2                !
 ! D54   D(13,11,14,15)         58.9155         estimate D2E/DX2                !
 --------------------------------------------------------------------------------
 Trust Radius=3.00D-01 FncErr=1.00D-07 GrdErr=1.00D-06
 Number of steps in this run=    125 maximum allowed number of steps=    144.
 GradGradGradGradGradGradGradGradGradGradGradGradGradGradGradGradGradGrad

                          Input orientation:                          
 ---------------------------------------------------------------------
 Center     Atomic      Atomic             Coordinates (Angstroms)
 Number     Number       Type             X           Y           Z
 ---------------------------------------------------------------------
      1          6           0        0.000000    0.000000    0.000000
      2          8           0        0.000000    0.000000    1.413516
      3          1           0        0.927487    0.000000    1.705916
      4          1           0        0.518025   -0.897246   -0.348146
      5          1           0        0.517855    0.896952   -0.346765
      6          6           0       -1.421472    0.000000   -0.528838
      7          8           0       -2.388894   -0.031101    0.233292
      8          6           0       -1.598381    0.004915   -2.046186
      9          6           0       -0.298033    0.045392   -2.863171
     10          6           0       -0.475503    0.021535   -4.392866
     11          6           0        0.868280    0.042020   -5.121945
     12          1           0        1.456696   -0.851959   -4.890189
     13          1           0        1.450260    0.935079   -4.878545
     14          8           0        0.629072    0.051603   -6.525700
     15          1           0        1.497715    0.058819   -6.962591
     16          1           0       -2.186879   -0.881805   -2.305009
     17          8           0       -2.380652    1.139726   -2.396895
     18          1           0       -3.220032    0.818209   -2.768774
     19          1           0        0.315092    0.921242   -2.614396
     20          8           0        0.442584   -1.096782   -2.443213
     21          1           0        1.278324   -0.786348   -2.056148
     22          1           0       -0.890860   -0.938129   -4.720149
     23          8           0       -1.232935    1.156129   -4.812737
     24          1           0       -1.994538    0.834382   -5.324640
 ---------------------------------------------------------------------
                    Distance matrix (angstroms):
                    1          2          3          4          5
     1  C    0.000000
     2  O    1.413516   0.000000
     3  H    1.941747   0.972486   0.000000
     4  H    1.092980   2.043735   2.278570   0.000000
     5  H    1.092219   2.042373   2.277240   1.794199   0.000000
     6  C    1.516658   2.406932   3.242180   2.144609   2.144449
     7  O    2.400460   2.664716   3.628770   3.088439   3.105952
     8  C    2.596483   3.811087   4.523086   2.859442   2.856959
     9  C    2.878998   4.287299   4.730805   2.807110   2.779051
    10  C    4.418579   5.825859   6.258114   4.265093   4.257235
    11  C    5.195190   6.593021   6.828247   4.877915   4.863749
    12  H    5.173176   6.525680   6.671919   4.638244   4.958106
    13  H    5.174730   6.524390   6.671041   4.975037   4.626863
    14  O    6.556154   7.964267   8.237185   6.250985   6.237485
    15  H    7.122098   8.509158   8.687441   6.754608   6.740308
    16  H    3.297436   4.403118   5.154064   3.338571   3.783422
    17  O    3.565331   4.635268   5.392200   4.092549   3.558555
    18  H    4.324833   5.341313   6.155829   4.772347   4.454675
    19  H    2.789809   4.143917   4.459687   2.912725   2.276808
    20  O    2.714425   4.034002   4.318950   2.105899   2.894086
    21  H    2.545624   3.780347   3.859346   1.872865   2.516705
    22  H    4.894234   6.268617   6.743944   4.593587   4.947574
    23  O    5.100902   6.451588   6.963971   5.216779   4.803888
    24  H    5.746840   7.076519   7.659187   5.837551   5.576314
                    6          7          8          9         10
     6  C    0.000000
     7  O    1.231956   0.000000
     8  C    1.527634   2.412929   0.000000
     9  C    2.591001   3.737062   1.536232   0.000000
    10  C    3.978195   5.006513   2.601545   1.540140   0.000000
    11  C    5.132384   6.268420   3.942853   2.542117   1.528963
    12  H    5.294437   6.458516   4.260995   2.827210   2.178007
    13  H    5.295391   6.465561   4.263997   2.812437   2.186095
    14  O    6.337961   7.402630   5.002976   3.778053   2.402076
    15  H    7.065288   8.178909   5.810314   4.475504   3.240134
    16  H    2.125608   2.684675   1.095259   2.176919   2.846749
    17  O    2.389276   2.879025   1.422231   2.398392   2.977221
    18  H    2.986904   3.228702   1.952776   3.023944   3.287066
    19  H    2.865989   4.040770   2.196337   1.097691   2.144171
    20  O    2.888333   4.039384   2.353063   1.424584   2.427893
    21  H    3.199987   4.388670   2.983560   1.956522   3.031309
    22  H    4.327669   5.253892   2.922327   2.183375   1.095715
    23  O    4.441168   5.311136   3.018716   2.430758   1.427340
    24  H    4.901460   5.638722   3.404881   3.091838   1.958671
                   11         12         13         14         15
    11  C    0.000000
    12  H    1.095054   0.000000
    13  H    1.093389   1.787088   0.000000
    14  O    1.424023   2.043595   2.041568   0.000000
    15  H    1.945366   2.264078   2.261268   0.972351   0.000000
    16  H    4.257062   4.467626   4.811750   5.158979   6.012826
    17  O    4.380230   4.990848   4.569065   5.223933   6.087337
    18  H    4.780604   5.400153   5.126053   5.433027   6.357823
    19  H    2.714194   3.102698   2.532818   4.019099   4.587937
    20  O    2.941716   2.660085   3.327869   4.245028   4.782624
    21  H    3.202099   2.840407   3.310407   4.593537   4.983535
    22  H    2.053462   2.355283   3.002472   2.559253   3.424579
    23  O    2.398323   3.357459   2.693089   2.760668   3.644504
    24  H    2.977356   3.865684   3.475021   2.989752   3.934490
                   16         17         18         19         20
    16  H    0.000000
    17  O    2.032874   0.000000
    18  H    2.042677   0.972741   0.000000
    19  H    3.099445   2.713315   3.539993   0.000000
    20  O    2.641854   3.602051   4.145834   2.029280   0.000000
    21  H    3.475439   4.148973   4.828835   2.038460   0.971931
    22  H    2.741485   3.454630   3.509648   3.057086   2.643422
    23  O    3.369256   2.674662   2.870632   2.698937   3.673910
    24  H    3.478572   2.968840   2.834528   3.561932   4.239290
                   21         22         23         24
    21  H    0.000000
    22  H    3.438793   0.000000
    23  O    4.204572   2.124030   0.000000
    24  H    4.901166   2.173778   0.972422   0.000000
 Stoichiometry    C6H12O6
 Framework group  C1[X(C6H12O6)]
 Deg. of freedom    66
 Full point group                 C1      NOp   1
 Largest Abelian subgroup         C1      NOp   1
 Largest concise Abelian subgroup C1      NOp   1
                         Standard orientation:                         
 ---------------------------------------------------------------------
 Center     Atomic      Atomic             Coordinates (Angstroms)
 Number     Number       Type             X           Y           Z
 ---------------------------------------------------------------------
      1          6           0        2.369185   -0.985248   -0.335150
      2          8           0        3.758644   -1.206886   -0.470459
      3          1           0        3.879135   -2.111948   -0.805234
      4          1           0        1.966760   -1.717742    0.369203
      5          1           0        1.902096   -1.103522   -1.315345
      6          6           0        2.105188    0.414510    0.185654
      7          8           0        3.029612    1.180570    0.461892
      8          6           0        0.645324    0.817998    0.384804
      9          6           0       -0.393287   -0.244670   -0.005109
     10          6           0       -1.864127    0.151422    0.222421
     11          6           0       -2.823410   -0.972111   -0.171503
     12          1           0       -2.668592   -1.859624    0.450988
     13          1           0       -2.721776   -1.243660   -1.225747
     14          8           0       -4.160573   -0.527124    0.032997
     15          1           0       -4.746635   -1.260851   -0.219277
     16          1           0        0.529470    1.100173    1.436729
     17          8           0        0.399603    1.986201   -0.388283
     18          1           0        0.196963    2.712026    0.226811
     19          1           0       -0.291341   -0.551806   -1.054012
     20          8           0       -0.071726   -1.387665    0.782040
     21          1           0        0.146904   -2.116294    0.177101
     22          1           0       -2.075754    0.258963    1.292113
     23          8           0       -2.182297    1.307385   -0.552057
     24          1           0       -2.536567    1.983036    0.050931
 ---------------------------------------------------------------------
 Rotational constants (GHZ):      1.8327531      0.4586354      0.3880071
 Standard basis: 6-31G(d) (6D, 7F)
 There are   204 symmetry adapted basis functions of A   symmetry.
 Integral buffers will be    131072 words long.
 Raffenetti 2 integral format.
 Two-electron integral symmetry is turned on.
   204 basis functions,   384 primitive gaussians,   204 cartesian basis functions
    48 alpha electrons       48 beta electrons
       nuclear repulsion energy       781.5408310482 Hartrees.
 NAtoms=   24 NActive=   24 NUniq=   24 SFac= 1.00D+00 NAtFMM=   50 NAOKFM=F Big=F
 One-electron integrals computed using PRISM.
 NBasis=   204 RedAO= T  NBF=   204
 NBsUse=   204 1.00D-06 NBFU=   204
 Harris functional with IExCor=  402 diagonalized for initial guess.
 ExpMin= 1.61D-01 ExpMax= 5.48D+03 ExpMxC= 8.25D+02 IAcc=1 IRadAn=         1 AccDes= 0.00D+00
 HarFok:  IExCor=  402 AccDes= 0.00D+00 IRadAn=         1 IDoV= 1
 ScaDFX=  1.000000  1.000000  1.000000  1.000000
 FoFCou: FMM=F IPFlag=           0 FMFlag=      100000 FMFlg1=           0
         NFxFlg=           0 DoJE=T BraDBF=F KetDBF=T FulRan=T
         Omega=  0.000000  0.000000  1.000000  0.000000  0.000000 ICntrl=     500 IOpCl=  0
         NMat0=    1 NMatS0=    1 NMatT0=    0 NMatD0=    1 NMtDS0=    0 NMtDT0=    0
         I1Cent=           4 NGrid=           0.
 Petite list used in FoFCou.
 Initial guess orbital symmetries:
       Occupied  (A) (A) (A) (A) (A) (A) (A) (A) (A) (A) (A) (A)
                 (A) (A) (A) (A) (A) (A) (A) (A) (A) (A) (A) (A)
                 (A) (A) (A) (A) (A) (A) (A) (A) (A) (A) (A) (A)
                 (A) (A) (A) (A) (A) (A) (A) (A) (A) (A) (A) (A)
       Virtual   (A) (A) (A) (A) (A) (A) (A) (A) (A) (A) (A) (A)
                 (A) (A) (A) (A) (A) (A) (A) (A) (A) (A) (A) (A)
                 (A) (A) (A) (A) (A) (A) (A) (A) (A) (A) (A) (A)
                 (A) (A) (A) (A) (A) (A) (A) (A) (A) (A) (A) (A)
                 (A) (A) (A) (A) (A) (A) (A) (A) (A) (A) (A) (A)
                 (A) (A) (A) (A) (A) (A) (A) (A) (A) (A) (A) (A)
                 (A) (A) (A) (A) (A) (A) (A) (A) (A) (A) (A) (A)
                 (A) (A) (A) (A) (A) (A) (A) (A) (A) (A) (A) (A)
                 (A) (A) (A) (A) (A) (A) (A) (A) (A) (A) (A) (A)
                 (A) (A) (A) (A) (A) (A) (A) (A) (A) (A) (A) (A)
                 (A) (A) (A) (A) (A) (A) (A) (A) (A) (A) (A) (A)
                 (A) (A) (A) (A) (A) (A) (A) (A) (A) (A) (A) (A)
                 (A) (A) (A) (A) (A) (A) (A) (A) (A) (A) (A) (A)
 The electronic state of the initial guess is 1-A.
 Requested convergence on RMS density matrix=1.00D-08 within 128 cycles.
 Requested convergence on MAX density matrix=1.00D-06.
 Requested convergence on             energy=1.00D-06.
 No special actions if energy rises.
 Keep R1 ints in memory in canonical form, NReq=223281102.
 Integral accuracy reduced to 1.0D-05 until final iterations.
 Initial convergence to 1.0D-05 achieved.  Increase integral accuracy.
 SCF Done:  E(RB3LYP) =  -687.082101753     A.U. after   14 cycles
             Convg  =    0.5117D-08             -V/T =  2.0084

 **********************************************************************

            Population analysis using the SCF density.

 **********************************************************************

 Orbital symmetries:
       Occupied  (A) (A) (A) (A) (A) (A) (A) (A) (A) (A) (A) (A)
                 (A) (A) (A) (A) (A) (A) (A) (A) (A) (A) (A) (A)
                 (A) (A) (A) (A) (A) (A) (A) (A) (A) (A) (A) (A)
                 (A) (A) (A) (A) (A) (A) (A) (A) (A) (A) (A) (A)
       Virtual   (A) (A) (A) (A) (A) (A) (A) (A) (A) (A) (A) (A)
                 (A) (A) (A) (A) (A) (A) (A) (A) (A) (A) (A) (A)
                 (A) (A) (A) (A) (A) (A) (A) (A) (A) (A) (A) (A)
                 (A) (A) (A) (A) (A) (A) (A) (A) (A) (A) (A) (A)
                 (A) (A) (A) (A) (A) (A) (A) (A) (A) (A) (A) (A)
                 (A) (A) (A) (A) (A) (A) (A) (A) (A) (A) (A) (A)
                 (A) (A) (A) (A) (A) (A) (A) (A) (A) (A) (A) (A)
                 (A) (A) (A) (A) (A) (A) (A) (A) (A) (A) (A) (A)
                 (A) (A) (A) (A) (A) (A) (A) (A) (A) (A) (A) (A)
                 (A) (A) (A) (A) (A) (A) (A) (A) (A) (A) (A) (A)
                 (A) (A) (A) (A) (A) (A) (A) (A) (A) (A) (A) (A)
                 (A) (A) (A) (A) (A) (A) (A) (A) (A) (A) (A) (A)
                 (A) (A) (A) (A) (A) (A) (A) (A) (A) (A) (A) (A)
 The electronic state is 1-A.
 Alpha  occ. eigenvalues --  -19.16950 -19.14837 -19.14666 -19.14480 -19.14339
 Alpha  occ. eigenvalues --  -19.14072 -10.27570 -10.25399 -10.25014 -10.24588
 Alpha  occ. eigenvalues --  -10.24206 -10.23148  -1.05413  -1.03949  -1.02849
 Alpha  occ. eigenvalues --   -1.02222  -1.00940  -1.00573  -0.78361  -0.75376
 Alpha  occ. eigenvalues --   -0.70918  -0.65040  -0.59209  -0.56938  -0.54173
 Alpha  occ. eigenvalues --   -0.52673  -0.52565  -0.51593  -0.49796  -0.48095
 Alpha  occ. eigenvalues --   -0.46968  -0.44446  -0.43770  -0.42473  -0.41237
 Alpha  occ. eigenvalues --   -0.40180  -0.36587  -0.36056  -0.34964  -0.34560
 Alpha  occ. eigenvalues --   -0.33349  -0.32494  -0.30992  -0.29943  -0.27107
 Alpha  occ. eigenvalues --   -0.26618  -0.25830  -0.23389
 Alpha virt. eigenvalues --   -0.02896   0.03026   0.05162   0.06455   0.06766
 Alpha virt. eigenvalues --    0.09137   0.11258   0.13512   0.14152   0.15122
 Alpha virt. eigenvalues --    0.15722   0.17216   0.17573   0.19365   0.21025
 Alpha virt. eigenvalues --    0.21785   0.22473   0.23284   0.25914   0.27055
 Alpha virt. eigenvalues --    0.29207   0.31120   0.34391   0.37651   0.51795
 Alpha virt. eigenvalues --    0.53508   0.54095   0.55802   0.56470   0.58980
 Alpha virt. eigenvalues --    0.59818   0.62224   0.63863   0.64523   0.66934
 Alpha virt. eigenvalues --    0.67133   0.68935   0.71321   0.72548   0.74047
 Alpha virt. eigenvalues --    0.77161   0.79497   0.80125   0.80878   0.81371
 Alpha virt. eigenvalues --    0.82839   0.84027   0.84770   0.85620   0.86967
 Alpha virt. eigenvalues --    0.88539   0.90357   0.90957   0.91652   0.92601
 Alpha virt. eigenvalues --    0.94041   0.95018   0.97041   0.98422   0.99555
 Alpha virt. eigenvalues --    0.99966   1.00800   1.01622   1.03371   1.06998
 Alpha virt. eigenvalues --    1.09143   1.11608   1.14614   1.15279   1.16550
 Alpha virt. eigenvalues --    1.18190   1.20765   1.24119   1.28666   1.31914
 Alpha virt. eigenvalues --    1.33586   1.34816   1.37133   1.40536   1.43301
 Alpha virt. eigenvalues --    1.48077   1.51500   1.52844   1.59539   1.60136
 Alpha virt. eigenvalues --    1.61384   1.63622   1.66466   1.68345   1.71193
 Alpha virt. eigenvalues --    1.72862   1.73969   1.74688   1.75565   1.77648
 Alpha virt. eigenvalues --    1.79340   1.80757   1.83060   1.85262   1.86564
 Alpha virt. eigenvalues --    1.89309   1.89971   1.91626   1.94968   1.96190
 Alpha virt. eigenvalues --    1.97997   2.01123   2.01879   2.06684   2.07148
 Alpha virt. eigenvalues --    2.09725   2.11933   2.14071   2.16210   2.17141
 Alpha virt. eigenvalues --    2.19715   2.21342   2.25590   2.28354   2.33953
 Alpha virt. eigenvalues --    2.35438   2.36086   2.39102   2.42674   2.46364
 Alpha virt. eigenvalues --    2.47866   2.50123   2.50645   2.52160   2.55048
 Alpha virt. eigenvalues --    2.59797   2.62044   2.63660   2.67081   2.70575
 Alpha virt. eigenvalues --    2.70908   2.79894   2.87168   2.89563   2.93958
 Alpha virt. eigenvalues --    2.97428   2.98072   3.01034   3.04991   3.64035
 Alpha virt. eigenvalues --    3.76658   3.80458   3.89431   3.93681   4.06659
 Alpha virt. eigenvalues --    4.16426   4.27735   4.39379   4.41633   4.54762
 Alpha virt. eigenvalues --    4.72141
          Condensed to atoms (all electrons):
              1          2          3          4          5          6
     1  C    5.200032   0.216577  -0.022092   0.341452   0.344933   0.257798
     2  O    0.216577   8.256551   0.231697  -0.032323  -0.037870  -0.032961
     3  H   -0.022092   0.231697   0.401335  -0.004019  -0.004316   0.006500
     4  H    0.341452  -0.032323  -0.004019   0.590087  -0.047465  -0.027280
     5  H    0.344933  -0.037870  -0.004316  -0.047465   0.628594  -0.037337
     6  C    0.257798  -0.032961   0.006500  -0.027280  -0.037337   4.648208
     7  O   -0.081682   0.002696   0.000236  -0.000216   0.000489   0.562327
     8  C   -0.126822   0.001906  -0.000223   0.005997   0.006300   0.271809
     9  C    0.005292   0.000063   0.000018  -0.007119  -0.000955  -0.040617
    10  C    0.000136   0.000000   0.000000   0.000249   0.000197   0.001677
    11  C    0.000017   0.000000   0.000000  -0.000034  -0.000009  -0.000054
    12  H   -0.000004   0.000000   0.000000   0.000000   0.000001   0.000008
    13  H   -0.000003   0.000000   0.000000  -0.000001  -0.000009   0.000003
    14  O    0.000000   0.000000   0.000000   0.000000   0.000000   0.000000
    15  H    0.000000   0.000000   0.000000   0.000000   0.000000   0.000000
    16  H    0.006793  -0.000048   0.000005  -0.000404   0.000178  -0.030901
    17  O    0.002774  -0.000006   0.000001   0.000088  -0.000033  -0.043633
    18  H   -0.000224   0.000001   0.000000  -0.000001  -0.000018   0.001542
    19  H   -0.000836  -0.000049   0.000006   0.000610   0.005783  -0.006087
    20  O   -0.015884   0.000371   0.000011   0.019789  -0.001289   0.000274
    21  H    0.006912  -0.000241  -0.000061  -0.000608   0.000781  -0.002033
    22  H   -0.000011   0.000000   0.000000   0.000004  -0.000002  -0.000014
    23  O    0.000000   0.000000   0.000000  -0.000003  -0.000001   0.000053
    24  H    0.000000   0.000000   0.000000   0.000000   0.000000   0.000024
              7          8          9         10         11         12
     1  C   -0.081682  -0.126822   0.005292   0.000136   0.000017  -0.000004
     2  O    0.002696   0.001906   0.000063   0.000000   0.000000   0.000000
     3  H    0.000236  -0.000223   0.000018   0.000000   0.000000   0.000000
     4  H   -0.000216   0.005997  -0.007119   0.000249  -0.000034   0.000000
     5  H    0.000489   0.006300  -0.000955   0.000197  -0.000009   0.000001
     6  C    0.562327   0.271809  -0.040617   0.001677  -0.000054   0.000008
     7  O    8.003954  -0.057954   0.003108  -0.000044   0.000000   0.000000
     8  C   -0.057954   5.143192   0.274580  -0.026369   0.003846  -0.000022
     9  C    0.003108   0.274580   5.102328   0.298243  -0.053220   0.002174
    10  C   -0.000044  -0.026369   0.298243   4.929092   0.341205  -0.033087
    11  C    0.000000   0.003846  -0.053220   0.341205   4.935385   0.345643
    12  H    0.000000  -0.000022   0.002174  -0.033087   0.345643   0.648115
    13  H    0.000000  -0.000055  -0.003817  -0.035090   0.350830  -0.052482
    14  O    0.000000  -0.000021   0.001978  -0.044850   0.243039  -0.040394
    15  H    0.000000   0.000003  -0.000231   0.006173  -0.022778  -0.004136
    16  H   -0.001634   0.343985  -0.043337  -0.007135  -0.000078   0.000006
    17  O   -0.001486   0.221209  -0.058385   0.002875  -0.000064   0.000000
    18  H    0.000907  -0.012031   0.004312   0.000583   0.000065  -0.000001
    19  H   -0.000001  -0.044905   0.360288  -0.044331  -0.010064   0.000177
    20  O   -0.000102  -0.040588   0.153690  -0.037585   0.003184   0.007882
    21  H    0.000016   0.007434  -0.015229   0.001136   0.000505   0.000593
    22  H    0.000000  -0.007853  -0.039763   0.349936  -0.059004  -0.005308
    23  O    0.000000   0.003850  -0.047893   0.221468  -0.054097   0.004198
    24  H    0.000000   0.000532   0.003720  -0.015492   0.003281  -0.000242
             13         14         15         16         17         18
     1  C   -0.000003   0.000000   0.000000   0.006793   0.002774  -0.000224
     2  O    0.000000   0.000000   0.000000  -0.000048  -0.000006   0.000001
     3  H    0.000000   0.000000   0.000000   0.000005   0.000001   0.000000
     4  H   -0.000001   0.000000   0.000000  -0.000404   0.000088  -0.000001
     5  H   -0.000009   0.000000   0.000000   0.000178  -0.000033  -0.000018
     6  C    0.000003   0.000000   0.000000  -0.030901  -0.043633   0.001542
     7  O    0.000000   0.000000   0.000000  -0.001634  -0.001486   0.000907
     8  C   -0.000055  -0.000021   0.000003   0.343985   0.221209  -0.012031
     9  C   -0.003817   0.001978  -0.000231  -0.043337  -0.058385   0.004312
    10  C   -0.035090  -0.044850   0.006173  -0.007135   0.002875   0.000583
    11  C    0.350830   0.243039  -0.022778  -0.000078  -0.000064   0.000065
    12  H   -0.052482  -0.040394  -0.004136   0.000006   0.000000  -0.000001
    13  H    0.654762  -0.041564  -0.004164   0.000007  -0.000007   0.000001
    14  O   -0.041564   8.267477   0.235143   0.000000   0.000000   0.000000
    15  H   -0.004164   0.235143   0.396877   0.000000   0.000000   0.000000
    16  H    0.000007   0.000000   0.000000   0.607785  -0.024973  -0.015053
    17  O   -0.000007   0.000000   0.000000  -0.024973   8.264317   0.230293
    18  H    0.000001   0.000000   0.000000  -0.015053   0.230293   0.388927
    19  H    0.007722  -0.000044  -0.000003   0.005953   0.002715  -0.000261
    20  O   -0.000001   0.000056   0.000008   0.002341   0.001599  -0.000115
    21  H    0.000007  -0.000002  -0.000002  -0.000339  -0.000169   0.000004
    22  H    0.008448   0.004521  -0.000257   0.004031   0.000006  -0.000010
    23  O   -0.001960   0.003159   0.000071   0.000062  -0.008825   0.004252
    24  H   -0.000244   0.000970  -0.000010  -0.000063   0.002819   0.000120
             19         20         21         22         23         24
     1  C   -0.000836  -0.015884   0.006912  -0.000011   0.000000   0.000000
     2  O   -0.000049   0.000371  -0.000241   0.000000   0.000000   0.000000
     3  H    0.000006   0.000011  -0.000061   0.000000   0.000000   0.000000
     4  H    0.000610   0.019789  -0.000608   0.000004  -0.000003   0.000000
     5  H    0.005783  -0.001289   0.000781  -0.000002  -0.000001   0.000000
     6  C   -0.006087   0.000274  -0.002033  -0.000014   0.000053   0.000024
     7  O   -0.000001  -0.000102   0.000016   0.000000   0.000000   0.000000
     8  C   -0.044905  -0.040588   0.007434  -0.007853   0.003850   0.000532
     9  C    0.360288   0.153690  -0.015229  -0.039763  -0.047893   0.003720
    10  C   -0.044331  -0.037585   0.001136   0.349936   0.221468  -0.015492
    11  C   -0.010064   0.003184   0.000505  -0.059004  -0.054097   0.003281
    12  H    0.000177   0.007882   0.000593  -0.005308   0.004198  -0.000242
    13  H    0.007722  -0.000001   0.000007   0.008448  -0.001960  -0.000244
    14  O   -0.000044   0.000056  -0.000002   0.004521   0.003159   0.000970
    15  H   -0.000003   0.000008  -0.000002  -0.000257   0.000071  -0.000010
    16  H    0.005953   0.002341  -0.000339   0.004031   0.000062  -0.000063
    17  O    0.002715   0.001599  -0.000169   0.000006  -0.008825   0.002819
    18  H   -0.000261  -0.000115   0.000004  -0.000010   0.004252   0.000120
    19  H    0.627834  -0.035294  -0.014621   0.007173   0.002191  -0.000303
    20  O   -0.035294   8.343125   0.222672   0.001552   0.001208  -0.000076
    21  H   -0.014621   0.222672   0.394936  -0.000268  -0.000045  -0.000002
    22  H    0.007173   0.001552  -0.000268   0.642186  -0.028921  -0.011938
    23  O    0.002191   0.001208  -0.000045  -0.028921   8.266125   0.231894
    24  H   -0.000303  -0.000076  -0.000002  -0.011938   0.231894   0.387719
 Mulliken atomic charges:
              1
     1  C   -0.135158
     2  O   -0.606364
     3  H    0.390903
     4  H    0.161196
     5  H    0.142051
     6  C    0.470694
     7  O   -0.430613
     8  C    0.032203
     9  C    0.100772
    10  C    0.091014
    11  C   -0.027596
    12  H    0.126879
    13  H    0.117618
    14  O   -0.629466
    15  H    0.393306
    16  H    0.152819
    17  O   -0.591115
    18  H    0.396709
    19  H    0.136347
    20  O   -0.626826
    21  H    0.398626
    22  H    0.135493
    23  O   -0.596785
    24  H    0.397291
 Sum of Mulliken atomic charges =   0.00000
 Mulliken charges with hydrogens summed into heavy atoms:
              1
     1  C    0.168090
     2  O   -0.215461
     6  C    0.470694
     7  O   -0.430613
     8  C    0.185023
     9  C    0.237120
    10  C    0.226508
    11  C    0.216901
    14  O   -0.236160
    17  O   -0.194406
    20  O   -0.228200
    23  O   -0.199494
 Sum of Mulliken charges with hydrogens summed into heavy atoms =   0.00000
 Electronic spatial extent (au):  <R**2>=           2750.4508
 Charge=              0.0000 electrons
 Dipole moment (field-independent basis, Debye):
    X=             -3.3958    Y=             -3.8931    Z=              0.1710  Tot=              5.1689
 Quadrupole moment (field-independent basis, Debye-Ang):
   XX=            -84.1797   YY=            -55.8474   ZZ=            -71.2236
   XY=             -5.9976   XZ=             -3.9365   YZ=             10.3603
 Traceless Quadrupole moment (field-independent basis, Debye-Ang):
   XX=            -13.7628   YY=             14.5695   ZZ=             -0.8067
   XY=             -5.9976   XZ=             -3.9365   YZ=             10.3603
 Octapole moment (field-independent basis, Debye-Ang**2):
  XXX=            -82.3647  YYY=             -0.9154  ZZZ=             -1.3582  XYY=             -8.3972
  XXY=            -58.9413  XXZ=            -14.9803  XZZ=              4.2612  YZZ=              0.0305
  YYZ=              1.6946  XYZ=             -3.7416
 Hexadecapole moment (field-independent basis, Debye-Ang**3):
 XXXX=          -2566.2020 YYYY=           -468.2744 ZZZZ=           -159.2426 XXXY=             23.2565
 XXXZ=             -4.5063 YYYX=            -82.5971 YYYZ=             34.4753 ZZZX=             -2.7653
 ZZZY=              6.7819 XXYY=           -380.2642 XXZZ=           -435.4801 YYZZ=           -129.3502
 XXYZ=             44.8217 YYXZ=            -24.0185 ZZXY=             -7.6035
 N-N= 7.815408310482D+02 E-N=-3.175084004627D+03  KE= 6.813516070085D+02
 Calling FoFJK, ICntrl=      2127 FMM=F ISym2X=0 I1Cent= 0 IOpClX= 0 NMat=1 NMatS=1 NMatT=0.
 ***** Axes restored to original set *****
 -------------------------------------------------------------------
 Center     Atomic                   Forces (Hartrees/Bohr)
 Number     Number              X              Y              Z
 -------------------------------------------------------------------
      1        6           0.004686541   -0.002697744    0.027429565
      2        8          -0.003558885    0.002182845    0.007591098
      3        1          -0.003919725   -0.000140361   -0.001892940
      4        1          -0.002826152    0.001727811   -0.002808757
      5        1           0.003396020    0.003984846   -0.010304523
      6        6          -0.017539784   -0.007725268    0.028682028
      7        8           0.024055536    0.002085447   -0.025351783
      8        6          -0.012695359    0.014063791   -0.016770891
      9        6           0.004745372   -0.002095721    0.003067598
     10        6           0.008002856    0.002370246   -0.008684771
     11        6           0.010335555    0.001217365   -0.010338704
     12        1           0.000405108   -0.000701065    0.009723344
     13        1           0.001210112    0.004215483    0.009031724
     14        8          -0.005297933   -0.001529416   -0.005292490
     15        1          -0.004045892   -0.000196861    0.001641485
     16        1           0.007869890   -0.008519710    0.001034327
     17        8          -0.012249624    0.004223729    0.005563868
     18        1           0.005141034    0.004946054    0.004120737
     19        1          -0.010367890    0.007625103   -0.001071987
     20        8           0.015015871   -0.014343098   -0.009595296
     21        1          -0.003233791   -0.004433926   -0.006847239
     22        1          -0.012366520   -0.000025225    0.004339372
     23        8          -0.002625378   -0.009378796   -0.004475423
     24        1           0.005863038    0.003144468    0.001209659
 -------------------------------------------------------------------
 Cartesian Forces:  Max     0.028682028 RMS     0.009321356

 GradGradGradGradGradGradGradGradGradGradGradGradGradGradGradGradGradGrad
 Berny optimization.
 Internal  Forces:  Max     0.045485445 RMS     0.009976099
 Search for a local minimum.
 Step number   1 out of a maximum of  125
 All quantities printed in internal units (Hartrees-Bohrs-Radians)
 Mixed Optimization -- RFO/linear search
 Second derivative matrix not updated -- first step.
 ITU=  0
     Eigenvalues ---    0.00235   0.00287   0.00383   0.00400   0.00474
     Eigenvalues ---    0.00546   0.01330   0.01367   0.01374   0.01398
     Eigenvalues ---    0.01513   0.03781   0.04406   0.04529   0.04772
     Eigenvalues ---    0.04838   0.05234   0.05249   0.05567   0.06358
     Eigenvalues ---    0.07013   0.07362   0.07927   0.08492   0.11472
     Eigenvalues ---    0.11550   0.13692   0.13970   0.16000   0.16000
     Eigenvalues ---    0.16000   0.16000   0.16000   0.16590   0.17086
     Eigenvalues ---    0.18243   0.19519   0.19782   0.19825   0.22028
     Eigenvalues ---    0.22170   0.24991   0.25000   0.28507   0.28855
     Eigenvalues ---    0.29519   0.29643   0.30691   0.33939   0.34160
     Eigenvalues ---    0.34212   0.34235   0.34424   0.34470   0.34557
     Eigenvalues ---    0.41374   0.41777   0.41860   0.42126   0.43452
     Eigenvalues ---    0.52821   0.52872   0.52885   0.52899   0.52984
     Eigenvalues ---    0.90276
 RFO step:  Lambda=-4.48376989D-02 EMin= 2.34970769D-03
 Linear search not attempted -- first point.
 Maximum step size (   0.300) exceeded in Quadratic search.
    -- Step size scaled by   0.810
 Iteration  1 RMS(Cart)=  0.21387264 RMS(Int)=  0.00895069
 Iteration  2 RMS(Cart)=  0.01989175 RMS(Int)=  0.00070827
 Iteration  3 RMS(Cart)=  0.00024066 RMS(Int)=  0.00070372
 Iteration  4 RMS(Cart)=  0.00000009 RMS(Int)=  0.00070372
 Variable       Old X    -DE/DX   Delta X   Delta X   Delta X     New X
                                 (Linear)    (Quad)   (Total)
    R1        2.67116   0.00570   0.00000   0.00963   0.00963   2.68079
    R2        2.06543  -0.00187   0.00000  -0.00388  -0.00388   2.06155
    R3        2.06400   0.00816   0.00000   0.01692   0.01692   2.08092
    R4        2.86607   0.00488   0.00000   0.01125   0.01125   2.87732
    R5        1.83773  -0.00431   0.00000  -0.00609  -0.00609   1.83165
    R6        2.32806  -0.03463   0.00000  -0.02960  -0.02960   2.29846
    R7        2.88681   0.02369   0.00000   0.05622   0.05622   2.94303
    R8        2.90306   0.01530   0.00000   0.03718   0.03718   2.94024
    R9        2.06974   0.00243   0.00000   0.00508   0.00508   2.07482
   R10        2.68763   0.00884   0.00000   0.01536   0.01536   2.70298
   R11        2.91044   0.00266   0.00000   0.00654   0.00654   2.91699
   R12        2.07433   0.00005   0.00000   0.00011   0.00011   2.07444
   R13        2.69207   0.01633   0.00000   0.02859   0.02859   2.72067
   R14        2.88932   0.00007   0.00000   0.00016   0.00016   2.88948
   R15        2.07060   0.00342   0.00000   0.00716   0.00716   2.07776
   R16        2.69728  -0.00572   0.00000  -0.01010  -0.01010   2.68718
   R17        2.06935   0.00285   0.00000   0.00596   0.00596   2.07531
   R18        2.06621   0.00610   0.00000   0.01269   0.01269   2.07890
   R19        2.69101   0.00515   0.00000   0.00901   0.00901   2.70002
   R20        1.83748  -0.00435   0.00000  -0.00614  -0.00614   1.83134
   R21        1.83821  -0.00764   0.00000  -0.01080  -0.01080   1.82741
   R22        1.83668  -0.00692   0.00000  -0.00975  -0.00975   1.82693
   R23        1.83761  -0.00627   0.00000  -0.00885  -0.00885   1.82876
    A1        1.89497   0.00712   0.00000   0.03119   0.03092   1.92589
    A2        1.89387   0.00716   0.00000   0.03130   0.03102   1.92489
    A3        1.92697  -0.00994   0.00000  -0.02859  -0.02850   1.89847
    A4        1.92656  -0.00181   0.00000  -0.00930  -0.00992   1.91664
    A5        1.91043  -0.00119   0.00000  -0.01186  -0.01176   1.89867
    A6        1.91099  -0.00129   0.00000  -0.01232  -0.01223   1.89876
    A7        1.87619  -0.00115   0.00000  -0.00454  -0.00454   1.87166
    A8        2.11798  -0.01688   0.00000  -0.04593  -0.04662   2.07136
    A9        2.04303   0.04549   0.00000   0.12539   0.12472   2.16775
   A10        2.12188  -0.02850   0.00000  -0.07788  -0.07853   2.04335
   A11        2.01561   0.03534   0.00000   0.12028   0.12127   2.13688
   A12        1.86956  -0.00688   0.00000  -0.02919  -0.02814   1.84142
   A13        1.88725  -0.02602   0.00000  -0.08557  -0.08723   1.80002
   A14        1.92887  -0.01637   0.00000  -0.06153  -0.06069   1.86817
   A15        1.88958   0.00205   0.00000   0.01594   0.01744   1.90702
   A16        1.86730   0.01028   0.00000   0.03465   0.03345   1.90075
   A17        2.01558   0.00147   0.00000  -0.00469  -0.00400   2.01157
   A18        1.95335  -0.00663   0.00000  -0.02017  -0.02161   1.93174
   A19        1.83605   0.01730   0.00000   0.06487   0.06399   1.90004
   A20        1.87740   0.00301   0.00000  -0.00294  -0.00253   1.87487
   A21        1.91801  -0.02191   0.00000  -0.08810  -0.08749   1.83052
   A22        1.85723   0.00667   0.00000   0.05465   0.05387   1.91110
   A23        1.95210  -0.00789   0.00000  -0.02325  -0.02317   1.92893
   A24        1.93255  -0.00420   0.00000  -0.02458  -0.02427   1.90828
   A25        1.91878   0.00930   0.00000   0.03186   0.03189   1.95067
   A26        1.77467   0.00876   0.00000   0.04362   0.04353   1.81820
   A27        1.89175  -0.00243   0.00000  -0.00758  -0.00740   1.88435
   A28        1.99016  -0.00428   0.00000  -0.02136  -0.02128   1.96888
   A29        1.93950  -0.00311   0.00000  -0.02382  -0.02381   1.91568
   A30        1.95260  -0.00301   0.00000  -0.02197  -0.02191   1.93070
   A31        1.89918  -0.01155   0.00000  -0.03224  -0.03208   1.86710
   A32        1.91100  -0.00016   0.00000  -0.00379  -0.00521   1.90579
   A33        1.88009   0.00890   0.00000   0.04034   0.03976   1.91984
   A34        1.87901   0.00974   0.00000   0.04602   0.04554   1.92455
   A35        1.86806   0.00064   0.00000   0.00252   0.00252   1.87058
   A36        1.88091   0.00470   0.00000   0.01857   0.01857   1.89948
   A37        1.88426   0.00384   0.00000   0.01518   0.01518   1.89943
   A38        1.88332   0.00184   0.00000   0.00729   0.00729   1.89060
    D1        1.04720   0.00296   0.00000   0.01143   0.01199   1.05919
    D2       -1.04720  -0.00315   0.00000  -0.01368  -0.01424  -1.06144
    D3        3.14159  -0.00005   0.00000  -0.00089  -0.00089   3.14071
    D4       -0.02957  -0.00052   0.00000  -0.00727  -0.00696  -0.03653
    D5        3.13798  -0.00458   0.00000  -0.07485  -0.07515   3.06283
    D6        2.05550   0.00138   0.00000   0.00612   0.00642   2.06192
    D7       -1.06014  -0.00268   0.00000  -0.06146  -0.06177  -1.12191
    D8       -2.11363  -0.00241   0.00000  -0.02050  -0.02019  -2.13382
    D9        1.05392  -0.00647   0.00000  -0.08808  -0.08838   0.96554
   D10       -0.02602   0.00584   0.00000   0.06386   0.06216   0.03614
   D11        2.13081   0.00341   0.00000   0.04354   0.04251   2.17331
   D12       -2.14533  -0.00093   0.00000   0.02692   0.02871  -2.11662
   D13        3.14159   0.00158   0.00000  -0.00440  -0.00547   3.13612
   D14       -0.98477  -0.00085   0.00000  -0.02472  -0.02512  -1.00989
   D15        1.02227  -0.00519   0.00000  -0.04134  -0.03892   0.98336
   D16        3.12086   0.00083   0.00000   0.01647   0.01493   3.13579
   D17       -1.00654   0.00056   0.00000  -0.00820  -0.00919  -1.01574
   D18        1.00309   0.01511   0.00000   0.08373   0.08249   1.08558
   D19        0.99555  -0.00304   0.00000   0.01559   0.01551   1.01106
   D20       -3.13185  -0.00330   0.00000  -0.00907  -0.00861  -3.14046
   D21       -1.12221   0.01125   0.00000   0.08285   0.08307  -1.03914
   D22       -1.04427  -0.00748   0.00000  -0.00110  -0.00032  -1.04459
   D23        1.11152  -0.00774   0.00000  -0.02576  -0.02444   1.08707
   D24        3.12116   0.00681   0.00000   0.06616   0.06724  -3.09479
   D25       -2.00853   0.01556   0.00000   0.06755   0.06736  -1.94117
   D26        2.07914  -0.01260   0.00000  -0.03598  -0.03535   2.04379
   D27        0.00000   0.00000   0.00000   0.00916   0.00871   0.00871
   D28       -3.12566  -0.00455   0.00000  -0.00043  -0.00095  -3.12661
   D29       -1.15972  -0.00088   0.00000   0.02490   0.02466  -1.13506
   D30        1.05505  -0.00261   0.00000   0.00278   0.00245   1.05750
   D31        0.96229   0.00072   0.00000   0.03221   0.03238   0.99467
   D32        2.92823   0.00439   0.00000   0.05754   0.05799   2.98622
   D33       -1.14019   0.00267   0.00000   0.03542   0.03578  -1.10441
   D34       -1.05269   0.00261   0.00000   0.01512   0.01501  -1.03769
   D35        0.91324   0.00628   0.00000   0.04046   0.04062   0.95386
   D36        3.12801   0.00455   0.00000   0.01834   0.01841  -3.13676
   D37       -2.07517  -0.00425   0.00000  -0.05688  -0.05911  -2.13428
   D38        2.02772  -0.00415   0.00000  -0.04067  -0.04074   1.98698
   D39        0.00000  -0.00027   0.00000  -0.02258  -0.02028  -0.02028
   D40        1.09888  -0.00590   0.00000  -0.04430  -0.04441   1.05447
   D41       -1.04308  -0.00127   0.00000  -0.00636  -0.00660  -1.04968
   D42       -3.11698  -0.00404   0.00000  -0.02913  -0.02927   3.13693
   D43       -0.96377  -0.00240   0.00000  -0.02983  -0.02964  -0.99341
   D44       -3.10572   0.00222   0.00000   0.00811   0.00816  -3.09756
   D45        1.10356  -0.00055   0.00000  -0.01466  -0.01450   1.08906
   D46       -3.06614  -0.00090   0.00000  -0.02430  -0.02422  -3.09036
   D47        1.07509   0.00372   0.00000   0.01364   0.01358   1.08867
   D48       -0.99882   0.00095   0.00000  -0.00913  -0.00908  -1.00790
   D49       -2.18207  -0.00272   0.00000  -0.01565  -0.01567  -2.19774
   D50        1.96255   0.00276   0.00000  -0.00202  -0.00207   1.96048
   D51        0.00000  -0.00411   0.00000  -0.03903  -0.03896  -0.03896
   D52       -3.13543   0.00029   0.00000   0.00324   0.00323  -3.13220
   D53       -1.03109  -0.00485   0.00000  -0.02025  -0.02133  -1.05242
   D54        1.02827   0.00485   0.00000   0.02113   0.02222   1.05049
         Item               Value     Threshold  Converged?
 Maximum Force            0.045485     0.000450     NO 
 RMS     Force            0.009976     0.000300     NO 
 Maximum Displacement     0.829261     0.001800     NO 
 RMS     Displacement     0.225040     0.001200     NO 
 Predicted change in Energy=-2.523070D-02
 GradGradGradGradGradGradGradGradGradGradGradGradGradGradGradGradGradGrad

                          Input orientation:                          
 ---------------------------------------------------------------------
 Center     Atomic      Atomic             Coordinates (Angstroms)
 Number     Number       Type             X           Y           Z
 ---------------------------------------------------------------------
      1          6           0       -0.036375    0.019863    0.286529
      2          8           0       -0.330871    0.085803    1.672669
      3          1           0        0.514995    0.119456    2.144742
      4          1           0        0.542732   -0.877504    0.064074
      5          1           0        0.524863    0.913713   -0.027522
      6          6           0       -1.344720   -0.035804   -0.490307
      7          8           0       -2.391087   -0.056961    0.129402
      8          6           0       -1.441661   -0.013684   -2.044511
      9          6           0       -0.183135    0.021475   -2.958692
     10          6           0       -0.470826    0.031701   -4.475213
     11          6           0        0.836203    0.045107   -5.268614
     12          1           0        1.423336   -0.852337   -5.032111
     13          1           0        1.428450    0.939476   -5.024519
     14          8           0        0.483731    0.047582   -6.653241
     15          1           0        1.310392    0.047380   -7.158998
     16          1           0       -2.011416   -0.912139   -2.315882
     17          8           0       -2.245540    1.140685   -2.303613
     18          1           0       -3.102074    0.853550   -2.648635
     19          1           0        0.433858    0.901500   -2.735261
     20          8           0        0.587139   -1.174396   -2.736540
     21          1           0        1.478619   -0.924188   -2.458509
     22          1           0       -0.949771   -0.915751   -4.761311
     23          8           0       -1.229383    1.171150   -4.860327
     24          1           0       -2.014249    0.866957   -5.337791
 ---------------------------------------------------------------------
                    Distance matrix (angstroms):
                    1          2          3          4          5
     1  C    0.000000
     2  O    1.418613   0.000000
     3  H    1.940846   0.969265   0.000000
     4  H    1.090925   2.068507   2.307352   0.000000
     5  H    1.101174   2.075660   2.312936   1.793646   0.000000
     6  C    1.522610   2.391891   3.228952   2.139690   2.147346
     7  O    2.361200   2.578090   3.540909   3.047106   3.077272
     8  C    2.722077   3.880874   4.625589   3.021611   2.965726
     9  C    3.248538   4.634164   5.151895   3.236072   3.144696
    10  C    4.781535   6.149714   6.693531   4.739102   4.642338
    11  C    5.623312   7.038830   7.420683   5.419861   5.321697
    12  H    5.583853   6.993670   7.299087   5.171769   5.382574
    13  H    5.585573   6.976840   7.273592   5.475371   5.078102
    14  O    6.959288   8.365753   8.798332   6.780973   6.682218
    15  H    7.566400   8.982960   9.337956   7.322396   7.226724
    16  H    3.397346   4.441696   5.229159   3.491284   3.873376
    17  O    3.584060   4.537571   5.333978   4.177736   3.592664
    18  H    4.325359   5.190633   6.049673   4.862093   4.475324
    19  H    3.182706   4.547530   4.942935   3.318582   2.709296
    20  O    3.309678   4.676747   5.050363   2.816657   3.420944
    21  H    3.274396   4.621793   4.817435   2.691002   3.193310
    22  H    5.214437   6.540815   7.135178   5.051076   5.284908
    23  O    5.407296   6.683213   7.295197   5.620240   5.147782
    24  H    6.021838   7.251932   7.933734   6.225869   5.886275
                    6          7          8          9         10
     6  C    0.000000
     7  O    1.216294   0.000000
     8  C    1.557382   2.372590   0.000000
     9  C    2.728642   3.797042   1.555908   0.000000
    10  C    4.080163   4.989764   2.617803   1.543602   0.000000
    11  C    5.253113   6.290024   3.948032   2.524945   1.529049
    12  H    5.381157   6.467122   4.223423   2.764663   2.163217
    13  H    5.403770   6.491892   4.245762   2.776252   2.175555
    14  O    6.428993   7.367480   4.995126   3.754342   2.378074
    15  H    7.178299   8.175121   5.808227   4.458011   3.221130
    16  H    2.131941   2.618185   1.097946   2.151151   2.815487
    17  O    2.341726   2.715714   1.430357   2.436241   3.015842
    18  H    2.921921   3.008658   1.968255   3.051014   3.306855
    19  H    3.013586   4.135851   2.198243   1.097746   2.145329
    20  O    3.173962   4.281602   2.437660   1.439716   2.365787
    21  H    3.554475   4.735398   3.086818   1.976332   2.963302
    22  H    4.378558   5.170492   2.904597   2.171534   1.099503
    23  O    4.535098   5.268321   3.062304   2.456135   1.421993
    24  H    4.976078   5.557502   3.456743   3.118963   1.955466
                   11         12         13         14         15
    11  C    0.000000
    12  H    1.098209   0.000000
    13  H    1.100106   1.791836   0.000000
    14  O    1.428789   2.078648   2.083436   0.000000
    15  H    1.948951   2.312119   2.316413   0.969101   0.000000
    16  H    4.212349   4.379383   4.753722   5.095048   5.950702
    17  O    4.414596   4.987733   4.576245   5.250054   6.116758
    18  H    4.798739   5.391692   5.116430   5.435481   6.361064
    19  H    2.704286   3.054591   2.496268   4.010266   4.589910
    20  O    2.821457   2.464264   3.226625   4.104202   4.644779
    21  H    3.041203   2.575198   3.171776   4.419266   4.802795
    22  H    2.090528   2.389350   3.027719   2.561706   3.432908
    23  O    2.387743   3.340797   2.672959   2.722445   3.605163
    24  H    2.967373   3.855698   3.457684   2.939675   3.878368
                   16         17         18         19         20
    16  H    0.000000
    17  O    2.066168   0.000000
    18  H    2.101884   0.967025   0.000000
    19  H    3.073196   2.724464   3.537318   0.000000
    20  O    2.645415   3.683896   4.210770   2.081548   0.000000
    21  H    3.492969   4.261109   4.917240   2.121615   0.966769
    22  H    2.665939   3.456620   3.496603   3.053148   2.555130
    23  O    3.380217   2.751416   2.915377   2.712008   3.648535
    24  H    3.506726   3.055268   2.900880   3.573176   4.207238
                   21         22         23         24
    21  H    0.000000
    22  H    3.346647   0.000000
    23  O    4.182396   2.107876   0.000000
    24  H    4.868120   2.154876   0.967740   0.000000
 Stoichiometry    C6H12O6
 Framework group  C1[X(C6H12O6)]
 Deg. of freedom    66
 Full point group                 C1      NOp   1
 Largest Abelian subgroup         C1      NOp   1
 Largest concise Abelian subgroup C1      NOp   1
                         Standard orientation:                         
 ---------------------------------------------------------------------
 Center     Atomic      Atomic             Coordinates (Angstroms)
 Number     Number       Type             X           Y           Z
 ---------------------------------------------------------------------
      1          6           0        2.675376   -0.979972   -0.379354
      2          8           0        4.089794   -0.901024   -0.454517
      3          1           0        4.403652   -1.732011   -0.842367
      4          1           0        2.375281   -1.815801    0.254248
      5          1           0        2.245714   -1.101524   -1.385932
      6          6           0        2.144097    0.311202    0.228061
      7          8           0        2.939660    1.160651    0.581453
      8          6           0        0.631554    0.648568    0.382455
      9          6           0       -0.491651   -0.343273   -0.036488
     10          6           0       -1.933049    0.157531    0.196477
     11          6           0       -2.945491   -0.905507   -0.231192
     12          1           0       -2.795436   -1.819725    0.358514
     13          1           0       -2.831496   -1.141517   -1.299620
     14          8           0       -4.245461   -0.369050    0.021252
     15          1           0       -4.889484   -1.044095   -0.240864
     16          1           0        0.486836    0.866745    1.448730
     17          8           0        0.491541    1.861867   -0.362005
     18          1           0        0.310608    2.586138    0.252675
     19          1           0       -0.402029   -0.604110   -1.099022
     20          8           0       -0.381053   -1.536076    0.762117
     21          1           0       -0.271344   -2.295918    0.174539
     22          1           0       -2.107175    0.276537    1.275562
     23          8           0       -2.204717    1.343344   -0.539803
     24          1           0       -2.528248    2.016300    0.075808
 ---------------------------------------------------------------------
 Rotational constants (GHZ):      1.9575678      0.4222739      0.3672532
 Standard basis: 6-31G(d) (6D, 7F)
 There are   204 symmetry adapted basis functions of A   symmetry.
 Integral buffers will be    131072 words long.
 Raffenetti 2 integral format.
 Two-electron integral symmetry is turned on.
   204 basis functions,   384 primitive gaussians,   204 cartesian basis functions
    48 alpha electrons       48 beta electrons
       nuclear repulsion energy       770.9451906624 Hartrees.
 NAtoms=   24 NActive=   24 NUniq=   24 SFac= 1.00D+00 NAtFMM=   50 NAOKFM=F Big=F
 One-electron integrals computed using PRISM.
 NBasis=   204 RedAO= T  NBF=   204
 NBsUse=   204 1.00D-06 NBFU=   204
 Initial guess read from the read-write file.
 B after Tr=     0.000000    0.000000    0.000000
         Rot=    1.000000    0.000000    0.000000    0.000000 Ang=   0.00 deg.
 Initial guess orbital symmetries:
       Occupied  (A) (A) (A) (A) (A) (A) (A) (A) (A) (A) (A) (A)
                 (A) (A) (A) (A) (A) (A) (A) (A) (A) (A) (A) (A)
                 (A) (A) (A) (A) (A) (A) (A) (A) (A) (A) (A) (A)
                 (A) (A) (A) (A) (A) (A) (A) (A) (A) (A) (A) (A)
       Virtual   (A) (A) (A) (A) (A) (A) (A) (A) (A) (A) (A) (A)
                 (A) (A) (A) (A) (A) (A) (A) (A) (A) (A) (A) (A)
                 (A) (A) (A) (A) (A) (A) (A) (A) (A) (A) (A) (A)
                 (A) (A) (A) (A) (A) (A) (A) (A) (A) (A) (A) (A)
                 (A) (A) (A) (A) (A) (A) (A) (A) (A) (A) (A) (A)
                 (A) (A) (A) (A) (A) (A) (A) (A) (A) (A) (A) (A)
                 (A) (A) (A) (A) (A) (A) (A) (A) (A) (A) (A) (A)
                 (A) (A) (A) (A) (A) (A) (A) (A) (A) (A) (A) (A)
                 (A) (A) (A) (A) (A) (A) (A) (A) (A) (A) (A) (A)
                 (A) (A) (A) (A) (A) (A) (A) (A) (A) (A) (A) (A)
                 (A) (A) (A) (A) (A) (A) (A) (A) (A) (A) (A) (A)
                 (A) (A) (A) (A) (A) (A) (A) (A) (A) (A) (A) (A)
                 (A) (A) (A) (A) (A) (A) (A) (A) (A) (A) (A) (A)
 Harris functional with IExCor=  402 diagonalized for initial guess.
 ExpMin= 1.61D-01 ExpMax= 5.48D+03 ExpMxC= 8.25D+02 IAcc=1 IRadAn=         1 AccDes= 0.00D+00
 HarFok:  IExCor=  402 AccDes= 0.00D+00 IRadAn=         1 IDoV= 1
 ScaDFX=  1.000000  1.000000  1.000000  1.000000
 FoFCou: FMM=F IPFlag=           0 FMFlag=      100000 FMFlg1=           0
         NFxFlg=           0 DoJE=T BraDBF=F KetDBF=T FulRan=T
         Omega=  0.000000  0.000000  1.000000  0.000000  0.000000 ICntrl=     500 IOpCl=  0
         NMat0=    1 NMatS0=    1 NMatT0=    0 NMatD0=    1 NMtDS0=    0 NMtDT0=    0
         I1Cent=           4 NGrid=           0.
 Petite list used in FoFCou.
 Requested convergence on RMS density matrix=1.00D-08 within 128 cycles.
 Requested convergence on MAX density matrix=1.00D-06.
 Requested convergence on             energy=1.00D-06.
 No special actions if energy rises.
 Keep R1 ints in memory in canonical form, NReq=223281311.
 Integral accuracy reduced to 1.0D-05 until final iterations.
 Initial convergence to 1.0D-05 achieved.  Increase integral accuracy.
 SCF Done:  E(RB3LYP) =  -687.091177368     A.U. after   13 cycles
             Convg  =    0.7126D-08             -V/T =  2.0087
 Calling FoFJK, ICntrl=      2127 FMM=F ISym2X=0 I1Cent= 0 IOpClX= 0 NMat=1 NMatS=1 NMatT=0.
 ***** Axes restored to original set *****
 -------------------------------------------------------------------
 Center     Atomic                   Forces (Hartrees/Bohr)
 Number     Number              X              Y              Z
 -------------------------------------------------------------------
      1        6          -0.001848096    0.004378149    0.007951669
      2        8          -0.001256052    0.000059969   -0.003060530
      3        1           0.000082041   -0.000073990   -0.000864982
      4        1           0.005469863   -0.003439496   -0.007460897
      5        1           0.002888289   -0.001163868   -0.005186693
      6        6          -0.006752922   -0.003202828    0.012292359
      7        8           0.005238149   -0.002263350   -0.009140069
      8        6          -0.006875047    0.005942626   -0.010691836
      9        6           0.003382314   -0.001888752    0.004159023
     10        6           0.001476826    0.003574182   -0.004862467
     11        6           0.002988668   -0.002079054   -0.008526079
     12        1           0.000487072    0.001354164    0.002621276
     13        1          -0.000507296    0.001591034    0.002578392
     14        8          -0.000029142   -0.000788198    0.001832755
     15        1          -0.000828575   -0.000146009   -0.000117982
     16        1           0.003427971   -0.003806475    0.002097402
     17        8           0.002182093    0.001928286   -0.000900306
     18        1           0.001430708    0.000468854    0.001859876
     19        1          -0.003838317    0.003009071    0.002190012
     20        8          -0.001134289   -0.002805805    0.009850781
     21        1          -0.000061812   -0.000053648    0.000027403
     22        1          -0.006079741    0.001325776    0.003638561
     23        8          -0.002725398   -0.003217107    0.000800250
     24        1           0.002882692    0.001296469   -0.001087918
 -------------------------------------------------------------------
 Cartesian Forces:  Max     0.012292359 RMS     0.004071284

 GradGradGradGradGradGradGradGradGradGradGradGradGradGradGradGradGradGrad
 Berny optimization.
 Using GEDIIS/GDIIS optimizer.
 Internal  Forces:  Max     0.019989883 RMS     0.004390413
 Search for a local minimum.
 Step number   2 out of a maximum of  125
 All quantities printed in internal units (Hartrees-Bohrs-Radians)
 Mixed Optimization -- RFO/linear search
 Update second derivatives using D2CorX and points    1    2
 DE= -9.08D-03 DEPred=-2.52D-02 R= 3.60D-01
 Trust test= 3.60D-01 RLast= 4.04D-01 DXMaxT set to 3.00D-01
 ITU=  0  0
 Use linear search instead of GDIIS.
     Eigenvalues ---    0.00236   0.00293   0.00383   0.00400   0.00494
     Eigenvalues ---    0.00565   0.01328   0.01374   0.01382   0.01398
     Eigenvalues ---    0.01513   0.03746   0.03957   0.04576   0.04845
     Eigenvalues ---    0.04906   0.05120   0.05463   0.05866   0.06542
     Eigenvalues ---    0.06879   0.07456   0.07849   0.09149   0.10955
     Eigenvalues ---    0.11189   0.13536   0.13852   0.15960   0.16000
     Eigenvalues ---    0.16000   0.16000   0.16004   0.16217   0.17440
     Eigenvalues ---    0.19062   0.19377   0.19924   0.21762   0.22073
     Eigenvalues ---    0.22314   0.24725   0.28289   0.28498   0.29352
     Eigenvalues ---    0.29503   0.30677   0.33932   0.34126   0.34152
     Eigenvalues ---    0.34206   0.34236   0.34379   0.34513   0.41065
     Eigenvalues ---    0.41384   0.41700   0.42023   0.42861   0.46176
     Eigenvalues ---    0.52680   0.52855   0.52881   0.52903   0.53037
     Eigenvalues ---    0.88583
 RFO step:  Lambda=-7.91691410D-03 EMin= 2.36038540D-03
 Quartic linear search produced a step of -0.32601.
 Iteration  1 RMS(Cart)=  0.18612656 RMS(Int)=  0.00920261
 Iteration  2 RMS(Cart)=  0.01704904 RMS(Int)=  0.00083026
 Iteration  3 RMS(Cart)=  0.00007997 RMS(Int)=  0.00082893
 Iteration  4 RMS(Cart)=  0.00000005 RMS(Int)=  0.00082893
 Variable       Old X    -DE/DX   Delta X   Delta X   Delta X     New X
                                 (Linear)    (Quad)   (Total)
    R1        2.68079  -0.00359  -0.00314   0.00079  -0.00235   2.67843
    R2        2.06155   0.00725   0.00127   0.01149   0.01276   2.07431
    R3        2.08092   0.00201  -0.00552   0.01468   0.00916   2.09008
    R4        2.87732   0.00017  -0.00367   0.00745   0.00378   2.88110
    R5        1.83165  -0.00036   0.00198  -0.00449  -0.00251   1.82914
    R6        2.29846  -0.00912   0.00965  -0.02705  -0.01740   2.28106
    R7        2.94303  -0.00514  -0.01833   0.02381   0.00549   2.94851
    R8        2.94024  -0.01089  -0.01212  -0.00169  -0.01381   2.92643
    R9        2.07482   0.00082  -0.00166   0.00483   0.00317   2.07799
   R10        2.70298  -0.00026  -0.00501   0.00960   0.00459   2.70757
   R11        2.91699   0.00352  -0.00213   0.01224   0.01011   2.92709
   R12        2.07444   0.00070  -0.00003   0.00144   0.00140   2.07584
   R13        2.72067   0.00326  -0.00932   0.02384   0.01452   2.73519
   R14        2.88948   0.00265  -0.00005   0.00604   0.00599   2.89547
   R15        2.07776   0.00056  -0.00233   0.00566   0.00332   2.08108
   R16        2.68718  -0.00155   0.00329  -0.00907  -0.00578   2.68140
   R17        2.07531  -0.00028  -0.00194   0.00327   0.00133   2.07664
   R18        2.07890   0.00159  -0.00414   0.01119   0.00705   2.08595
   R19        2.70002  -0.00146  -0.00294   0.00355   0.00062   2.70063
   R20        1.83134  -0.00064   0.00200  -0.00489  -0.00289   1.82845
   R21        1.82741  -0.00207   0.00352  -0.00980  -0.00628   1.82113
   R22        1.82693  -0.00006   0.00318  -0.00656  -0.00338   1.82355
   R23        1.82876  -0.00221   0.00288  -0.00868  -0.00579   1.82297
    A1        1.92589   0.00406  -0.01008   0.04214   0.03209   1.95799
    A2        1.92489   0.00324  -0.01011   0.03820   0.02812   1.95301
    A3        1.89847  -0.00001   0.00929  -0.01262  -0.00331   1.89516
    A4        1.91664  -0.00325   0.00323  -0.03268  -0.02989   1.88675
    A5        1.89867  -0.00257   0.00384  -0.02027  -0.01662   1.88205
    A6        1.89876  -0.00160   0.00399  -0.01620  -0.01241   1.88636
    A7        1.87166  -0.00145   0.00148  -0.00843  -0.00695   1.86471
    A8        2.07136   0.01562   0.01520   0.01445   0.02539   2.09674
    A9        2.16775  -0.01924  -0.04066   0.02754  -0.01711   2.15064
   A10        2.04335   0.00365   0.02560  -0.03669  -0.01490   2.02845
   A11        2.13688  -0.01999  -0.03953  -0.00824  -0.04864   2.08824
   A12        1.84142   0.00287   0.00917  -0.02572  -0.01829   1.82313
   A13        1.80002   0.00893   0.02844  -0.02192   0.00748   1.80750
   A14        1.86817   0.00421   0.01979  -0.02924  -0.01164   1.85654
   A15        1.90702   0.00473  -0.00569   0.02822   0.02194   1.92896
   A16        1.90075   0.00058  -0.01091   0.06914   0.05855   1.95930
   A17        2.01157   0.00200   0.00131   0.00897   0.01013   2.02170
   A18        1.93174  -0.00060   0.00705  -0.02599  -0.01872   1.91302
   A19        1.90004  -0.00938  -0.02086  -0.00674  -0.02743   1.87261
   A20        1.87487  -0.00019   0.00082   0.02282   0.02352   1.89839
   A21        1.83052   0.00699   0.02852  -0.01937   0.00900   1.83952
   A22        1.91110   0.00169  -0.01756   0.02247   0.00458   1.91568
   A23        1.92893  -0.00043   0.00755  -0.01233  -0.00480   1.92413
   A24        1.90828  -0.00278   0.00791  -0.03055  -0.02271   1.88558
   A25        1.95067   0.00239  -0.01040   0.02708   0.01668   1.96735
   A26        1.81820   0.00347  -0.01419   0.04495   0.03082   1.84902
   A27        1.88435  -0.00121   0.00241  -0.00543  -0.00308   1.88126
   A28        1.96888  -0.00137   0.00694  -0.02272  -0.01583   1.95305
   A29        1.91568  -0.00028   0.00776  -0.01419  -0.00642   1.90926
   A30        1.93070  -0.00234   0.00714  -0.02480  -0.01768   1.91302
   A31        1.86710  -0.00148   0.01046  -0.02428  -0.01385   1.85325
   A32        1.90579  -0.00001   0.00170  -0.00270  -0.00086   1.90493
   A33        1.91984   0.00158  -0.01296   0.03070   0.01784   1.93768
   A34        1.92455   0.00252  -0.01485   0.03524   0.02038   1.94493
   A35        1.87058   0.00097  -0.00082   0.00534   0.00451   1.87510
   A36        1.89948  -0.00017  -0.00605   0.00968   0.00363   1.90310
   A37        1.89943   0.00007  -0.00495   0.00879   0.00384   1.90327
   A38        1.89060   0.00095  -0.00238   0.00791   0.00553   1.89614
    D1        1.05919   0.00047  -0.00391   0.00636   0.00245   1.06164
    D2       -1.06144  -0.00028   0.00464  -0.00576  -0.00111  -1.06255
    D3        3.14071  -0.00025   0.00029  -0.00101  -0.00072   3.13999
    D4       -0.03653  -0.00049   0.00227  -0.01908  -0.01776  -0.05428
    D5        3.06283   0.00056   0.02450   0.13398   0.15944  -3.06092
    D6        2.06192   0.00289  -0.00209   0.01248   0.00923   2.07116
    D7       -1.12191   0.00395   0.02014   0.16554   0.18643  -0.93548
    D8       -2.13382  -0.00346   0.00658  -0.04829  -0.04245  -2.17627
    D9        0.96554  -0.00241   0.02881   0.10478   0.13474   1.10028
   D10        0.03614   0.00210  -0.02026  -0.03632  -0.05528  -0.01914
   D11        2.17331  -0.00402  -0.01386  -0.10700  -0.11908   2.05423
   D12       -2.11662   0.00137  -0.00936  -0.04932  -0.05835  -2.17497
   D13        3.13612   0.00342   0.00178   0.11560   0.11641  -3.03065
   D14       -1.00989  -0.00270   0.00819   0.04492   0.05261  -0.95728
   D15        0.98336   0.00269   0.01269   0.10260   0.11335   1.09670
   D16        3.13579  -0.00362  -0.00487  -0.17868  -0.18268   2.95311
   D17       -1.01574  -0.00287   0.00300  -0.16227  -0.15881  -1.17454
   D18        1.08558  -0.00713  -0.02689  -0.15490  -0.18091   0.90467
   D19        1.01106   0.00346  -0.00506  -0.10897  -0.11422   0.89685
   D20       -3.14046   0.00422   0.00281  -0.09257  -0.09035   3.05238
   D21       -1.03914  -0.00005  -0.02708  -0.08519  -0.11245  -1.15159
   D22       -1.04459  -0.00208   0.00010  -0.18959  -0.18977  -1.23435
   D23        1.08707  -0.00132   0.00797  -0.17318  -0.16590   0.92118
   D24       -3.09479  -0.00559  -0.02192  -0.16580  -0.18800   3.00039
   D25       -1.94117  -0.00703  -0.02196   0.01677  -0.00525  -1.94642
   D26        2.04379   0.00855   0.01152   0.02411   0.03595   2.07975
   D27        0.00871   0.00054  -0.00284   0.00449   0.00140   0.01011
   D28       -3.12661   0.00192   0.00031  -0.00247  -0.00192  -3.12853
   D29       -1.13506   0.00428  -0.00804   0.02743   0.01954  -1.11552
   D30        1.05750   0.00216  -0.00080  -0.00524  -0.00586   1.05164
   D31        0.99467   0.00146  -0.01056   0.00747  -0.00317   0.99149
   D32        2.98622   0.00382  -0.01891   0.03736   0.01829   3.00451
   D33       -1.10441   0.00170  -0.01167   0.00470  -0.00712  -1.11152
   D34       -1.03769  -0.00375  -0.00489  -0.01917  -0.02407  -1.06176
   D35        0.95386  -0.00139  -0.01324   0.01072  -0.00261   0.95126
   D36       -3.13676  -0.00352  -0.00600  -0.02194  -0.02801   3.11841
   D37       -2.13428   0.00232   0.01927   0.02583   0.04586  -2.08842
   D38        1.98698   0.00096   0.01328   0.03028   0.04364   2.03062
   D39       -0.02028  -0.00319   0.00661   0.00358   0.00935  -0.01092
   D40        1.05447  -0.00269   0.01448  -0.04523  -0.03070   1.02377
   D41       -1.04968  -0.00100   0.00215  -0.01680  -0.01458  -1.06426
   D42        3.13693  -0.00182   0.00954  -0.03046  -0.02092   3.11602
   D43       -0.99341  -0.00115   0.00966  -0.02840  -0.01875  -1.01215
   D44       -3.09756   0.00054  -0.00266   0.00003  -0.00262  -3.10018
   D45        1.08906  -0.00027   0.00473  -0.01364  -0.00897   1.08009
   D46       -3.09036  -0.00080   0.00790  -0.02297  -0.01509  -3.10545
   D47        1.08867   0.00089  -0.00443   0.00546   0.00104   1.08971
   D48       -1.00790   0.00008   0.00296  -0.00821  -0.00531  -1.01320
   D49       -2.19774  -0.00041   0.00511  -0.02458  -0.01947  -2.21721
   D50        1.96048  -0.00056   0.00068  -0.02258  -0.02192   1.93856
[...]
    22  H    2.142822   2.440351   3.054888   2.623603   3.544067
    23  O    2.405207   3.355398   2.705331   2.658310   3.482179
    24  H    2.407746   3.413569   2.790459   2.108420   2.892854
                   16         17         18         19         20
    16  H    0.000000
    17  O    2.090164   0.000000
    18  H    2.487405   0.978004   0.000000
    19  H    3.056055   2.730308   2.731058   0.000000
    20  O    2.627029   3.708629   3.823411   2.093012   0.000000
    21  H    2.692972   3.825187   4.171066   2.417876   0.979594
    22  H    2.527152   3.309804   2.852211   3.056516   2.616774
    23  O    3.358399   2.682581   1.828287   2.607724   3.606054
    24  H    4.153352   3.593556   2.679783   3.428446   4.265474
                   21         22         23         24
    21  H    0.000000
    22  H    3.431519   0.000000
    23  O    4.312358   2.082927   0.000000
    24  H    5.068633   2.385476   0.974156   0.000000
 Stoichiometry    C6H12O6
 Framework group  C1[X(C6H12O6)]
 Deg. of freedom    66
 Full point group                 C1      NOp   1
 Largest Abelian subgroup         C1      NOp   1
 Largest concise Abelian subgroup C1      NOp   1
                         Standard orientation:                         
 ---------------------------------------------------------------------
 Center     Atomic      Atomic             Coordinates (Angstroms)
 Number     Number       Type             X           Y           Z
 ---------------------------------------------------------------------
      1          6           0       -3.110063   -0.686613   -0.154886
      2          8           0       -4.298769    0.026134   -0.402928
      3          1           0       -4.981422   -0.622420   -0.629581
      4          1           0       -2.777835   -1.296420   -1.010578
      5          1           0       -3.188248   -1.384947    0.695128
      6          6           0       -1.991153    0.289375    0.151537
      7          8           0       -2.153094    1.498426    0.101946
      8          6           0       -0.636692   -0.316605    0.538955
      9          6           0        0.526474    0.444743   -0.159787
     10          6           0        1.894419   -0.116888    0.243182
     11          6           0        3.052370    0.658465   -0.376115
     12          1           0        3.082110    1.678293    0.021890
     13          1           0        2.922571    0.702345   -1.467449
     14          8           0        4.226728   -0.086145   -0.028901
     15          1           0        4.969370    0.247836   -0.552376
     16          1           0       -0.521519   -0.137666    1.625035
     17          8           0       -0.670770   -1.697856    0.242170
     18          1           0        0.255353   -2.005463    0.177628
     19          1           0        0.408835    0.317593   -1.250143
     20          8           0        0.541078    1.807080    0.214315
     21          1           0       -0.386809    2.115821    0.156787
     22          1           0        1.988233   -0.060490    1.339228
     23          8           0        1.968662   -1.480223   -0.184767
     24          1           0        2.906559   -1.728665   -0.097562
 ---------------------------------------------------------------------
 Rotational constants (GHZ):      2.2342470      0.4291510      0.3717861

 **********************************************************************

            Population analysis using the SCF density.

 **********************************************************************

 Orbital symmetries:
       Occupied  (A) (A) (A) (A) (A) (A) (A) (A) (A) (A) (A) (A)
                 (A) (A) (A) (A) (A) (A) (A) (A) (A) (A) (A) (A)
                 (A) (A) (A) (A) (A) (A) (A) (A) (A) (A) (A) (A)
                 (A) (A) (A) (A) (A) (A) (A) (A) (A) (A) (A) (A)
       Virtual   (A) (A) (A) (A) (A) (A) (A) (A) (A) (A) (A) (A)
                 (A) (A) (A) (A) (A) (A) (A) (A) (A) (A) (A) (A)
                 (A) (A) (A) (A) (A) (A) (A) (A) (A) (A) (A) (A)
                 (A) (A) (A) (A) (A) (A) (A) (A) (A) (A) (A) (A)
                 (A) (A) (A) (A) (A) (A) (A) (A) (A) (A) (A) (A)
                 (A) (A) (A) (A) (A) (A) (A) (A) (A) (A) (A) (A)
                 (A) (A) (A) (A) (A) (A) (A) (A) (A) (A) (A) (A)
                 (A) (A) (A) (A) (A) (A) (A) (A) (A) (A) (A) (A)
                 (A) (A) (A) (A) (A) (A) (A) (A) (A) (A) (A) (A)
                 (A) (A) (A) (A) (A) (A) (A) (A) (A) (A) (A) (A)
                 (A) (A) (A) (A) (A) (A) (A) (A) (A) (A) (A) (A)
                 (A) (A) (A) (A) (A) (A) (A) (A) (A) (A) (A) (A)
                 (A) (A) (A) (A) (A) (A) (A) (A) (A) (A) (A) (A)
 The electronic state is 1-A.
 Alpha  occ. eigenvalues --  -19.16699 -19.16441 -19.15653 -19.15044 -19.14283
 Alpha  occ. eigenvalues --  -19.13780 -10.28549 -10.24839 -10.24627 -10.24604
 Alpha  occ. eigenvalues --  -10.24277 -10.24037  -1.06278  -1.05187  -1.02866
 Alpha  occ. eigenvalues --   -1.02268  -1.01464  -1.01244  -0.77712  -0.75083
 Alpha  occ. eigenvalues --   -0.71226  -0.65996  -0.59158  -0.54489  -0.54282
 Alpha  occ. eigenvalues --   -0.53375  -0.53028  -0.51652  -0.48786  -0.47672
 Alpha  occ. eigenvalues --   -0.46305  -0.45043  -0.43579  -0.43324  -0.41103
 Alpha  occ. eigenvalues --   -0.39983  -0.38455  -0.37223  -0.36520  -0.36156
 Alpha  occ. eigenvalues --   -0.34847  -0.33166  -0.29096  -0.28721  -0.28312
 Alpha  occ. eigenvalues --   -0.27468  -0.26015  -0.25115
 Alpha virt. eigenvalues --   -0.02662   0.04563   0.06729   0.08776   0.11595
 Alpha virt. eigenvalues --    0.11772   0.12470   0.14295   0.15631   0.16560
 Alpha virt. eigenvalues --    0.17058   0.17391   0.18108   0.19442   0.20081
 Alpha virt. eigenvalues --    0.21398   0.22060   0.24086   0.25721   0.28108
 Alpha virt. eigenvalues --    0.28502   0.29879   0.32851   0.39586   0.51874
 Alpha virt. eigenvalues --    0.52889   0.53483   0.55963   0.57004   0.57717
 Alpha virt. eigenvalues --    0.58007   0.59769   0.62776   0.63811   0.65536
 Alpha virt. eigenvalues --    0.66992   0.68648   0.70869   0.74825   0.75633
 Alpha virt. eigenvalues --    0.76266   0.77840   0.79334   0.80114   0.80918
 Alpha virt. eigenvalues --    0.81640   0.83275   0.83875   0.86200   0.86846
 Alpha virt. eigenvalues --    0.88721   0.89267   0.90155   0.93179   0.93296
 Alpha virt. eigenvalues --    0.93857   0.95757   0.96369   0.97389   0.98964
 Alpha virt. eigenvalues --    1.02977   1.04135   1.05564   1.07031   1.08133
 Alpha virt. eigenvalues --    1.09333   1.10200   1.13528   1.18076   1.18849
 Alpha virt. eigenvalues --    1.20425   1.23219   1.28330   1.30934   1.32141
 Alpha virt. eigenvalues --    1.36216   1.37812   1.39126   1.43789   1.47159
 Alpha virt. eigenvalues --    1.50433   1.52843   1.55208   1.58082   1.59413
 Alpha virt. eigenvalues --    1.61048   1.64457   1.65341   1.66567   1.69086
 Alpha virt. eigenvalues --    1.71843   1.72786   1.73645   1.74905   1.78671
 Alpha virt. eigenvalues --    1.79566   1.80048   1.84043   1.85902   1.86620
 Alpha virt. eigenvalues --    1.89975   1.91716   1.92984   1.94119   1.96720
 Alpha virt. eigenvalues --    1.98872   2.00282   2.03852   2.05275   2.06163
 Alpha virt. eigenvalues --    2.06417   2.08681   2.10564   2.13781   2.15070
 Alpha virt. eigenvalues --    2.17985   2.21170   2.26856   2.28930   2.32536
 Alpha virt. eigenvalues --    2.36155   2.37625   2.39956   2.41312   2.45183
 Alpha virt. eigenvalues --    2.46586   2.47808   2.49848   2.50923   2.54726
 Alpha virt. eigenvalues --    2.56945   2.58267   2.61838   2.63960   2.67468
 Alpha virt. eigenvalues --    2.74374   2.83621   2.85264   2.88352   2.89937
 Alpha virt. eigenvalues --    2.92580   2.96831   3.03253   3.07751   3.75721
 Alpha virt. eigenvalues --    3.77352   3.79556   3.95957   4.00001   4.05836
 Alpha virt. eigenvalues --    4.16740   4.27253   4.36104   4.44913   4.56868
 Alpha virt. eigenvalues --    4.65298
          Condensed to atoms (all electrons):
              1          2          3          4          5          6
     1  C    5.047327   0.245503  -0.024628   0.352910   0.357089   0.297506
     2  O    0.245503   8.217890   0.235675  -0.034735  -0.036852  -0.035377
     3  H   -0.024628   0.235675   0.390259  -0.004166  -0.003459   0.006674
     4  H    0.352910  -0.034735  -0.004166   0.585299  -0.047472  -0.033456
     5  H    0.357089  -0.036852  -0.003459  -0.047472   0.596207  -0.037862
     6  C    0.297506  -0.035377   0.006674  -0.033456  -0.037862   4.680931
     7  O   -0.071149   0.001798   0.000186   0.000012   0.000721   0.521882
     8  C   -0.109541   0.002030  -0.000229   0.003689   0.007846   0.291108
     9  C    0.002965  -0.000004   0.000003  -0.001147   0.000475  -0.018036
    10  C   -0.000150   0.000000   0.000000  -0.000015   0.000005   0.003953
    11  C    0.000002   0.000000   0.000000   0.000000   0.000000  -0.000080
    12  H    0.000000   0.000000   0.000000   0.000000   0.000000   0.000005
    13  H    0.000000   0.000000   0.000000   0.000000   0.000000   0.000005
    14  O    0.000000   0.000000   0.000000   0.000000   0.000000   0.000000
    15  H    0.000000   0.000000   0.000000   0.000000   0.000000   0.000000
    16  H    0.003625  -0.000015   0.000004   0.000598  -0.001002  -0.052905
    17  O    0.001801   0.000181   0.000011   0.007691   0.001386  -0.042545
    18  H   -0.000379  -0.000002   0.000000   0.000087   0.000036   0.003472
    19  H    0.000327  -0.000006   0.000000   0.000375  -0.000016  -0.008362
    20  O   -0.000204   0.000000   0.000000   0.000013  -0.000004  -0.003768
    21  H    0.001545  -0.000014   0.000001  -0.000050  -0.000034  -0.003533
    22  H   -0.000001   0.000000   0.000000   0.000000   0.000000  -0.000043
    23  O    0.000005   0.000000   0.000000   0.000000   0.000000  -0.000101
    24  H   -0.000001   0.000000   0.000000   0.000000   0.000000   0.000011
              7          8          9         10         11         12
     1  C   -0.071149  -0.109541   0.002965  -0.000150   0.000002   0.000000
     2  O    0.001798   0.002030  -0.000004   0.000000   0.000000   0.000000
     3  H    0.000186  -0.000229   0.000003   0.000000   0.000000   0.000000
     4  H    0.000012   0.003689  -0.001147  -0.000015   0.000000   0.000000
     5  H    0.000721   0.007846   0.000475   0.000005   0.000000   0.000000
     6  C    0.521882   0.291108  -0.018036   0.003953  -0.000080   0.000005
     7  O    8.034196  -0.069059  -0.000567   0.000082   0.000003   0.000001
     8  C   -0.069059   5.098007   0.328149  -0.026999   0.004714  -0.000065
     9  C   -0.000567   0.328149   4.889660   0.338897  -0.031184  -0.004252
    10  C    0.000082  -0.026999   0.338897   4.918356   0.357879  -0.031776
    11  C    0.000003   0.004714  -0.031184   0.357879   4.913241   0.355292
    12  H    0.000001  -0.000065  -0.004252  -0.031776   0.355292   0.584371
    13  H    0.000000  -0.000060  -0.003263  -0.034434   0.351849  -0.044622
    14  O    0.000000  -0.000026   0.002038  -0.048167   0.233367  -0.036651
    15  H    0.000000   0.000003  -0.000216   0.005804  -0.021385  -0.001165
    16  H    0.001070   0.339666  -0.044540  -0.013733  -0.000107   0.000020
    17  O    0.001536   0.210859  -0.027863  -0.001075  -0.000098   0.000002
    18  H   -0.000096  -0.026217  -0.007746  -0.003420   0.000807  -0.000029
    19  H    0.001019  -0.062008   0.349890  -0.058842  -0.010654   0.000577
    20  O   -0.020901  -0.022129   0.210765  -0.047453  -0.001627   0.009150
    21  H    0.058807  -0.012203  -0.028569   0.004813   0.000195  -0.000012
    22  H    0.000002  -0.011749  -0.043827   0.353420  -0.053519  -0.001768
    23  O    0.000000  -0.000610  -0.033698   0.191702  -0.032270   0.003523
    24  H    0.000000  -0.000207   0.006002  -0.030340  -0.013923   0.000941
             13         14         15         16         17         18
     1  C    0.000000   0.000000   0.000000   0.003625   0.001801  -0.000379
     2  O    0.000000   0.000000   0.000000  -0.000015   0.000181  -0.000002
     3  H    0.000000   0.000000   0.000000   0.000004   0.000011   0.000000
     4  H    0.000000   0.000000   0.000000   0.000598   0.007691   0.000087
     5  H    0.000000   0.000000   0.000000  -0.001002   0.001386   0.000036
     6  C    0.000005   0.000000   0.000000  -0.052905  -0.042545   0.003472
     7  O    0.000000   0.000000   0.000000   0.001070   0.001536  -0.000096
     8  C   -0.000060  -0.000026   0.000003   0.339666   0.210859  -0.026217
     9  C   -0.003263   0.002038  -0.000216  -0.044540  -0.027863  -0.007746
    10  C   -0.034434  -0.048167   0.005804  -0.013733  -0.001075  -0.003420
    11  C    0.351849   0.233367  -0.021385  -0.000107  -0.000098   0.000807
    12  H   -0.044622  -0.036651  -0.001165   0.000020   0.000002  -0.000029
    13  H    0.628275  -0.037640  -0.005647   0.000009  -0.000007  -0.000019
    14  O   -0.037640   8.266489   0.238103  -0.000001   0.000000   0.000014
    15  H   -0.005647   0.238103   0.379374   0.000000   0.000000   0.000000
    16  H    0.000009  -0.000001   0.000000   0.630709  -0.037157  -0.000278
    17  O   -0.000007   0.000000   0.000000  -0.037157   8.341924   0.228651
    18  H   -0.000019   0.000014   0.000000  -0.000278   0.228651   0.315269
    19  H    0.006448  -0.000083   0.000000   0.008072   0.005549   0.000394
    20  O   -0.000112   0.000051   0.000005   0.005507   0.001531   0.000068
    21  H   -0.000081   0.000000   0.000000   0.001523   0.000145  -0.000029
    22  H    0.007074   0.000907  -0.000208   0.006464   0.000328  -0.000073
    23  O   -0.000691  -0.010179   0.000449   0.000361  -0.019421   0.051845
    24  H   -0.000187   0.035377  -0.001585  -0.000022   0.000654  -0.001115
             19         20         21         22         23         24
     1  C    0.000327  -0.000204   0.001545  -0.000001   0.000005  -0.000001
     2  O   -0.000006   0.000000  -0.000014   0.000000   0.000000   0.000000
     3  H    0.000000   0.000000   0.000001   0.000000   0.000000   0.000000
     4  H    0.000375   0.000013  -0.000050   0.000000   0.000000   0.000000
     5  H   -0.000016  -0.000004  -0.000034   0.000000   0.000000   0.000000
     6  C   -0.008362  -0.003768  -0.003533  -0.000043  -0.000101   0.000011
     7  O    0.001019  -0.020901   0.058807   0.000002   0.000000   0.000000
     8  C   -0.062008  -0.022129  -0.012203  -0.011749  -0.000610  -0.000207
     9  C    0.349890   0.210765  -0.028569  -0.043827  -0.033698   0.006002
    10  C   -0.058842  -0.047453   0.004813   0.353420   0.191702  -0.030340
    11  C   -0.010654  -0.001627   0.000195  -0.053519  -0.032270  -0.013923
    12  H    0.000577   0.009150  -0.000012  -0.001768   0.003523   0.000941
    13  H    0.006448  -0.000112  -0.000081   0.007074  -0.000691  -0.000187
    14  O   -0.000083   0.000051   0.000000   0.000907  -0.010179   0.035377
    15  H    0.000000   0.000005   0.000000  -0.000208   0.000449  -0.001585
    16  H    0.008072   0.005507   0.001523   0.006464   0.000361  -0.000022
    17  O    0.005549   0.001531   0.000145   0.000328  -0.019421   0.000654
    18  H    0.000394   0.000068  -0.000029  -0.000073   0.051845  -0.001115
    19  H    0.667507  -0.036309  -0.000531   0.007585   0.005138  -0.000205
    20  O   -0.036309   8.343088   0.221644   0.004404   0.001265  -0.000093
    21  H   -0.000531   0.221644   0.329008  -0.000275  -0.000078   0.000007
    22  H    0.007585   0.004404  -0.000275   0.633638  -0.041310  -0.001046
    23  O    0.005138   0.001265  -0.000078  -0.041310   8.323837   0.233209
    24  H   -0.000205  -0.000093   0.000007  -0.001046   0.233209   0.349170
 Mulliken atomic charges:
              1
     1  C   -0.104552
     2  O   -0.596073
     3  H    0.399670
     4  H    0.170365
     5  H    0.162935
     6  C    0.430520
     7  O   -0.459541
     8  C    0.055028
     9  C    0.116069
    10  C    0.121495
    11  C   -0.052501
    12  H    0.166459
    13  H    0.133104
    14  O   -0.643598
    15  H    0.406470
    16  H    0.152133
    17  O   -0.674083
    18  H    0.438760
    19  H    0.124135
    20  O   -0.664889
    21  H    0.427720
    22  H    0.139997
    23  O   -0.672977
    24  H    0.423354
 Sum of Mulliken atomic charges =   0.00000
 Mulliken charges with hydrogens summed into heavy atoms:
              1
     1  C    0.228748
     2  O   -0.196403
     6  C    0.430520
     7  O   -0.459541
     8  C    0.207162
     9  C    0.240204
    10  C    0.261493
    11  C    0.247063
    14  O   -0.237128
    17  O   -0.235322
    20  O   -0.237169
    23  O   -0.249623
 Sum of Mulliken charges with hydrogens summed into heavy atoms =   0.00000
 Electronic spatial extent (au):  <R**2>=           2840.7232
 Charge=              0.0000 electrons
 Dipole moment (field-independent basis, Debye):
    X=              2.3107    Y=             -2.2168    Z=             -1.0581  Tot=              3.3724
 Quadrupole moment (field-independent basis, Debye-Ang):
   XX=            -53.6766   YY=            -75.0640   ZZ=            -68.3785
   XY=             10.5949   XZ=             -3.7850   YZ=             -0.5421
 Traceless Quadrupole moment (field-independent basis, Debye-Ang):
   XX=             12.0298   YY=             -9.3576   ZZ=             -2.6721
   XY=             10.5949   XZ=             -3.7850   YZ=             -0.5421
 Octapole moment (field-independent basis, Debye-Ang**2):
  XXX=             37.4442  YYY=             -7.8173  ZZZ=             -0.9265  XYY=              8.7939
  XXY=            -37.7137  XXZ=            -37.0672  XZZ=             -0.2360  YZZ=             -0.5818
  YYZ=             -2.0581  XYZ=             -8.4619
 Hexadecapole moment (field-independent basis, Debye-Ang**3):
 XXXX=          -2006.1838 YYYY=           -507.7071 ZZZZ=           -129.3922 XXXY=            245.9564
 XXXZ=            -73.7869 YYYX=            -34.4538 YYYZ=              3.0969 ZZZX=              0.4016
 ZZZY=              1.3740 XXYY=           -509.5580 XXZZ=           -450.3996 YYZZ=           -110.1835
 XXYZ=             10.6117 YYXZ=              5.1052 ZZXY=              0.6882
 N-N= 7.824664167497D+02 E-N=-3.176646157467D+03  KE= 6.812293163083D+02

 Test job not archived.
 1\1\GINC-TERMINUS\FOpt\RB3LYP\6-31G(d)\C6H12O6\FRODOX\04-Jan-2018\0\\#
 B3LYP/6-31G* fopt test\\Sugars/S-S-S-Fructuose.xyz\\0,1\C,-0.780626971
 ,0.5290380005,0.565764125\O,-0.2950563679,-0.0063408502,1.7741294313\H
 ,-0.474956394,0.6431357906,2.4697043498\H,-0.3254925918,1.4971078774,0
 .3009208328\H,-1.8694713476,0.7042312526,0.5714502002\C,-0.4733969318,
 -0.4276373104,-0.5694843838\O,0.1648437961,-1.4541743042,-0.3981355195
 \C,-1.0134302602,-0.0483614266,-1.9538188637\C,0.0553368311,-0.3142862
 613,-3.0528492529\C,-0.4748450877,0.019342059,-4.4516644614\C,0.532120
 8641,-0.2986807778,-5.5518608116\H,0.7035299551,-1.3788321768,-5.60872
 71699\H,1.4851365984,0.2053477941,-5.3339166649\O,-0.0559471546,0.2140
 470888,-6.7541098802\H,0.6166779955,0.2145471508,-7.4502865248\H,-1.85
 10679069,-0.742964788,-2.1556667221\O,-1.4538965126,1.293452476,-1.902
 5946055\H,-1.4856665186,1.6255231996,-2.8219483589\H,0.9224913552,0.33
 75876584,-2.8479430489\O,0.4182698204,-1.6791859116,-3.09101547\H,0.55
 56663758,-1.951150195,-2.160015322\H,-1.3841643269,-0.5750693454,-4.63
 36317635\O,-0.7854423692,1.4153170599,-4.4976972096\H,-0.9174018509,1.
 6206389393,-5.440781906\\Version=EM64L-G09RevB.01\State=1-A\HF=-687.13
 95256\RMSD=8.421e-09\RMSF=1.000e-05\Dipole=-0.0134672,0.9958313,-0.876
 6673\Quadrupole=-1.9094726,-6.4315208,8.3409935,1.8297538,-7.1243437,4
 .9904032\PG=C01 [X(C6H12O6)]\\@


 FROM THE ASHES OF OUR DESPAIR GROW THE FLOWERS OF TOMORROW.
 Job cpu time:  0 days  0 hours 56 minutes  6.7 seconds.
 File lengths (MBytes):  RWF=     27 Int=      0 D2E=      0 Chk=      4 Scr=      1
 Normal termination of Gaussian 09 at Thu Jan  4 17:25:56 2018.
