 Entering Gaussian System, Link 0=g09
 Input=S-S-R-Fructuose.inp
 Output=S-S-R-Fructuose.log
 Initial command:
 /usr/local/g09/l1.exe /home/g09scr/Gau-9030.inp -scrdir=/home/g09scr/
 Entering Link 1 = /usr/local/g09/l1.exe PID=      9032.
  
 Copyright (c) 1988,1990,1992,1993,1995,1998,2003,2009,2010,
            Gaussian, Inc.  All Rights Reserved.
  
 This is part of the Gaussian(R) 09 program.  It is based on
 the Gaussian(R) 03 system (copyright 2003, Gaussian, Inc.),
 the Gaussian(R) 98 system (copyright 1998, Gaussian, Inc.),
 the Gaussian(R) 94 system (copyright 1995, Gaussian, Inc.),
 the Gaussian 92(TM) system (copyright 1992, Gaussian, Inc.),
 the Gaussian 90(TM) system (copyright 1990, Gaussian, Inc.),
 the Gaussian 88(TM) system (copyright 1988, Gaussian, Inc.),
 the Gaussian 86(TM) system (copyright 1986, Carnegie Mellon
 University), and the Gaussian 82(TM) system (copyright 1983,
 Carnegie Mellon University). Gaussian is a federally registered
 trademark of Gaussian, Inc.
  
 This software contains proprietary and confidential information,
 including trade secrets, belonging to Gaussian, Inc.
  
 This software is provided under written license and may be
 used, copied, transmitted, or stored only in accord with that
 written license.
  
 The following legend is applicable only to US Government
 contracts under FAR:
  
                    RESTRICTED RIGHTS LEGEND
  
 Use, reproduction and disclosure by the US Government is
 subject to restrictions as set forth in subparagraphs (a)
 and (c) of the Commercial Computer Software - Restricted
 Rights clause in FAR 52.227-19.
  
 Gaussian, Inc.
 340 Quinnipiac St., Bldg. 40, Wallingford CT 06492
  
  
 ---------------------------------------------------------------
 Warning -- This program may not be used in any manner that
 competes with the business of Gaussian, Inc. or will provide
 assistance to any competitor of Gaussian, Inc.  The licensee
 of this program is prohibited from giving any competitor of
 Gaussian, Inc. access to this program.  By using this program,
 the user acknowledges that Gaussian, Inc. is engaged in the
 business of creating and licensing software in the field of
 computational chemistry and represents and warrants to the
 licensee that it is not a competitor of Gaussian, Inc. and that
 it will not use this program in any manner prohibited above.
 ---------------------------------------------------------------
  

 Cite this work as:
 Gaussian 09, Revision B.01,
 M. J. Frisch, G. W. Trucks, H. B. Schlegel, G. E. Scuseria, 
 M. A. Robb, J. R. Cheeseman, G. Scalmani, V. Barone, B. Mennucci, 
 G. A. Petersson, H. Nakatsuji, M. Caricato, X. Li, H. P. Hratchian, 
 A. F. Izmaylov, J. Bloino, G. Zheng, J. L. Sonnenberg, M. Hada, 
 M. Ehara, K. Toyota, R. Fukuda, J. Hasegawa, M. Ishida, T. Nakajima, 
 Y. Honda, O. Kitao, H. Nakai, T. Vreven, J. A. Montgomery, Jr., 
 J. E. Peralta, F. Ogliaro, M. Bearpark, J. J. Heyd, E. Brothers, 
 K. N. Kudin, V. N. Staroverov, T. Keith, R. Kobayashi, J. Normand, 
 K. Raghavachari, A. Rendell, J. C. Burant, S. S. Iyengar, J. Tomasi, 
 M. Cossi, N. Rega, J. M. Millam, M. Klene, J. E. Knox, J. B. Cross, 
 V. Bakken, C. Adamo, J. Jaramillo, R. Gomperts, R. E. Stratmann, 
 O. Yazyev, A. J. Austin, R. Cammi, C. Pomelli, J. W. Ochterski, 
 R. L. Martin, K. Morokuma, V. G. Zakrzewski, G. A. Voth, 
 P. Salvador, J. J. Dannenberg, S. Dapprich, A. D. Daniels, 
 O. Farkas, J. B. Foresman, J. V. Ortiz, J. Cioslowski, 
 and D. J. Fox, Gaussian, Inc., Wallingford CT, 2010.
 
 ******************************************
 Gaussian 09:  EM64L-G09RevB.01 12-Aug-2010
                 4-Jan-2018 
 ******************************************
 %nproc=4
 Will use up to    4 processors via shared memory.
 %mem=60gb
 -----------------------
 #B3LYP/6-31G* fopt test
 -----------------------
 1/14=-1,18=20,19=15,26=3,38=1/1,3;
 2/9=110,12=2,14=103,17=6,18=5,40=1/2;
 3/5=1,6=6,7=1,11=2,16=1,25=1,30=1,71=1,74=-5/1,2,3;
 4//1;
 5/5=2,38=5/2;
 6/7=2,8=2,9=2,10=2,28=1/1;
 7//1,2,3,16;
 1/14=-1,18=20,19=15/3(2);
 2/9=110/2;
 99//99;
 2/9=110/2;
 3/5=1,6=6,7=1,11=2,16=1,25=1,30=1,71=1,74=-5/1,2,3;
 4/5=5,16=3/1;
 5/5=2,38=5/2;
 7//1,2,3,16;
 1/14=-1,18=20,19=15/3(-5);
 2/9=110/2;
 6/7=2,8=2,9=2,10=2,19=2,28=1/1;
 99/9=1/99;
 --------------------------
 Sugars/S-S-R-Fructuose.xyz
 --------------------------
 Symbolic Z-matrix:
 Charge =  0 Multiplicity = 1
 C                     0.        0.        0. 
 O                     0.        0.        1.41352 
 H                     0.92749   0.        1.70592 
 H                     0.51803  -0.89725  -0.34815 
 H                     0.51786   0.89695  -0.34677 
 C                    -1.42147   0.       -0.52884 
 O                    -2.38889  -0.0311    0.23329 
 C                    -1.59838   0.00492  -2.04619 
 C                    -0.29803   0.04539  -2.86317 
 C                    -0.4755    0.02154  -4.39287 
 C                     0.86828   0.04202  -5.12195 
 H                     1.4567   -0.85196  -4.89019 
 H                     1.45026   0.93508  -4.87855 
 O                     0.62907   0.0516   -6.5257 
 H                     1.49772   0.05882  -6.96259 
 H                    -2.18688  -0.88181  -2.30501 
 O                    -2.38065   1.13973  -2.3969 
 H                    -3.22003   0.81821  -2.76877 
 H                     0.31509   0.92124  -2.6144 
 O                     0.44258  -1.09678  -2.44321 
 H                     1.27832  -0.78635  -2.05615 
 H                    -1.05584   0.88784  -4.72949 
 O                    -1.01692  -1.23465  -4.80051 
 H                    -1.82339  -1.05983  -5.31495 
 

 GradGradGradGradGradGradGradGradGradGradGradGradGradGradGradGradGradGrad
 Berny optimization.
 Initialization pass.
                           ----------------------------
                           !    Initial Parameters    !
                           ! (Angstroms and Degrees)  !
 --------------------------                            --------------------------
 ! Name  Definition              Value          Derivative Info.                !
 --------------------------------------------------------------------------------
 ! R1    R(1,2)                  1.4135         estimate D2E/DX2                !
 ! R2    R(1,4)                  1.093          estimate D2E/DX2                !
 ! R3    R(1,5)                  1.0922         estimate D2E/DX2                !
 ! R4    R(1,6)                  1.5167         estimate D2E/DX2                !
 ! R5    R(2,3)                  0.9725         estimate D2E/DX2                !
 ! R6    R(6,7)                  1.232          estimate D2E/DX2                !
 ! R7    R(6,8)                  1.5276         estimate D2E/DX2                !
 ! R8    R(8,9)                  1.5362         estimate D2E/DX2                !
 ! R9    R(8,16)                 1.0953         estimate D2E/DX2                !
 ! R10   R(8,17)                 1.4222         estimate D2E/DX2                !
 ! R11   R(9,10)                 1.5401         estimate D2E/DX2                !
 ! R12   R(9,19)                 1.0977         estimate D2E/DX2                !
 ! R13   R(9,20)                 1.4246         estimate D2E/DX2                !
 ! R14   R(10,11)                1.529          estimate D2E/DX2                !
 ! R15   R(10,22)                1.0957         estimate D2E/DX2                !
 ! R16   R(10,23)                1.4273         estimate D2E/DX2                !
 ! R17   R(11,12)                1.0951         estimate D2E/DX2                !
 ! R18   R(11,13)                1.0934         estimate D2E/DX2                !
 ! R19   R(11,14)                1.424          estimate D2E/DX2                !
 ! R20   R(14,15)                0.9724         estimate D2E/DX2                !
 ! R21   R(17,18)                0.9727         estimate D2E/DX2                !
 ! R22   R(20,21)                0.9719         estimate D2E/DX2                !
 ! R23   R(23,24)                0.9724         estimate D2E/DX2                !
 ! A1    A(2,1,4)              108.574          estimate D2E/DX2                !
 ! A2    A(2,1,5)              108.511          estimate D2E/DX2                !
 ! A3    A(2,1,6)              110.407          estimate D2E/DX2                !
 ! A4    A(4,1,5)              110.3838         estimate D2E/DX2                !
 ! A5    A(4,1,6)              109.4597         estimate D2E/DX2                !
 ! A6    A(5,1,6)              109.4917         estimate D2E/DX2                !
 ! A7    A(1,2,3)              107.498          estimate D2E/DX2                !
 ! A8    A(1,6,7)              121.351          estimate D2E/DX2                !
 ! A9    A(1,6,8)              117.057          estimate D2E/DX2                !
 ! A10   A(7,6,8)              121.5748         estimate D2E/DX2                !
 ! A11   A(6,8,9)              115.486          estimate D2E/DX2                !
 ! A12   A(6,8,16)             107.118          estimate D2E/DX2                !
 ! A13   A(6,8,17)             108.1312         estimate D2E/DX2                !
 ! A14   A(9,8,16)             110.516          estimate D2E/DX2                !
 ! A15   A(9,8,17)             108.265          estimate D2E/DX2                !
 ! A16   A(16,8,17)            106.9882         estimate D2E/DX2                !
 ! A17   A(8,9,10)             115.484          estimate D2E/DX2                !
 ! A18   A(8,9,19)             111.9187         estimate D2E/DX2                !
 ! A19   A(8,9,20)             105.1981         estimate D2E/DX2                !
 ! A20   A(10,9,19)            107.567          estimate D2E/DX2                !
 ! A21   A(10,9,20)            109.894          estimate D2E/DX2                !
 ! A22   A(19,9,20)            106.4113         estimate D2E/DX2                !
 ! A23   A(9,10,11)            111.847          estimate D2E/DX2                !
 ! A24   A(9,10,22)            110.727          estimate D2E/DX2                !
 ! A25   A(9,10,23)            109.938          estimate D2E/DX2                !
 ! A26   A(11,10,22)           107.9636         estimate D2E/DX2                !
 ! A27   A(11,10,23)           102.0626         estimate D2E/DX2                !
 ! A28   A(22,10,23)           114.0276         estimate D2E/DX2                !
 ! A29   A(10,11,12)           111.125          estimate D2E/DX2                !
 ! A30   A(10,11,13)           111.8759         estimate D2E/DX2                !
 ! A31   A(10,11,14)           108.815          estimate D2E/DX2                !
 ! A32   A(12,11,13)           109.4922         estimate D2E/DX2                !
 ! A33   A(12,11,14)           107.7211         estimate D2E/DX2                !
 ! A34   A(13,11,14)           107.6593         estimate D2E/DX2                !
 ! A35   A(11,14,15)           107.0319         estimate D2E/DX2                !
 ! A36   A(8,17,18)            107.768          estimate D2E/DX2                !
 ! A37   A(9,20,21)            107.96           estimate D2E/DX2                !
 ! A38   A(10,23,24)           107.906          estimate D2E/DX2                !
 ! D1    D(4,1,2,3)             60.0            estimate D2E/DX2                !
 ! D2    D(5,1,2,3)            -60.0            estimate D2E/DX2                !
 ! D3    D(6,1,2,3)            180.0            estimate D2E/DX2                !
 ! D4    D(2,1,6,7)             -1.694          estimate D2E/DX2                !
 ! D5    D(2,1,6,8)            179.793          estimate D2E/DX2                !
 ! D6    D(4,1,6,7)            117.7715         estimate D2E/DX2                !
 ! D7    D(4,1,6,8)            -60.7415         estimate D2E/DX2                !
 ! D8    D(5,1,6,7)           -121.102          estimate D2E/DX2                !
 ! D9    D(5,1,6,8)             60.385          estimate D2E/DX2                !
 ! D10   D(1,6,8,9)             -1.4906         estimate D2E/DX2                !
 ! D11   D(1,6,8,16)           122.0863         estimate D2E/DX2                !
 ! D12   D(1,6,8,17)          -122.9186         estimate D2E/DX2                !
 ! D13   D(7,6,8,9)            180.0            estimate D2E/DX2                !
 ! D14   D(7,6,8,16)           -56.4232         estimate D2E/DX2                !
 ! D15   D(7,6,8,17)            58.5719         estimate D2E/DX2                !
 ! D16   D(6,8,9,10)           178.812          estimate D2E/DX2                !
 ! D17   D(6,8,9,19)           -57.6707         estimate D2E/DX2                !
 ! D18   D(6,8,9,20)            57.4731         estimate D2E/DX2                !
 ! D19   D(16,8,9,10)           57.041          estimate D2E/DX2                !
 ! D20   D(16,8,9,19)         -179.4417         estimate D2E/DX2                !
 ! D21   D(16,8,9,20)          -64.298          estimate D2E/DX2                !
 ! D22   D(17,8,9,10)          -59.832          estimate D2E/DX2                !
 ! D23   D(17,8,9,19)           63.6853         estimate D2E/DX2                !
 ! D24   D(17,8,9,20)          178.829          estimate D2E/DX2                !
 ! D25   D(6,8,17,18)         -115.0804         estimate D2E/DX2                !
 ! D26   D(9,8,17,18)          119.126          estimate D2E/DX2                !
 ! D27   D(16,8,17,18)           0.0            estimate D2E/DX2                !
 ! D28   D(8,9,10,11)         -179.087          estimate D2E/DX2                !
 ! D29   D(8,9,10,22)           60.4499         estimate D2E/DX2                !
 ! D30   D(8,9,10,23)          -66.447          estimate D2E/DX2                !
 ! D31   D(19,9,10,11)          55.1349         estimate D2E/DX2                !
 ! D32   D(19,9,10,22)         -65.3281         estimate D2E/DX2                !
 ! D33   D(19,9,10,23)         167.775          estimate D2E/DX2                !
 ! D34   D(20,9,10,11)         -60.315          estimate D2E/DX2                !
 ! D35   D(20,9,10,22)         179.2219         estimate D2E/DX2                !
 ! D36   D(20,9,10,23)          52.325          estimate D2E/DX2                !
 ! D37   D(8,9,20,21)         -118.8985         estimate D2E/DX2                !
 ! D38   D(10,9,20,21)         116.1799         estimate D2E/DX2                !
 ! D39   D(19,9,20,21)           0.0            estimate D2E/DX2                !
 ! D40   D(9,10,11,12)          62.961          estimate D2E/DX2                !
 ! D41   D(9,10,11,13)         -59.764          estimate D2E/DX2                !
 ! D42   D(9,10,11,14)        -178.59           estimate D2E/DX2                !
 ! D43   D(22,10,11,12)       -174.9777         estimate D2E/DX2                !
 ! D44   D(22,10,11,13)         62.2974         estimate D2E/DX2                !
 ! D45   D(22,10,11,14)        -56.5287         estimate D2E/DX2                !
 ! D46   D(23,10,11,12)        -54.514          estimate D2E/DX2                !
 ! D47   D(23,10,11,13)       -177.2389         estimate D2E/DX2                !
 ! D48   D(23,10,11,14)         63.935          estimate D2E/DX2                !
 ! D49   D(9,10,23,24)         125.0235         estimate D2E/DX2                !
 ! D50   D(11,10,23,24)       -116.1399         estimate D2E/DX2                !
 ! D51   D(22,10,23,24)          0.0            estimate D2E/DX2                !
 ! D52   D(10,11,14,15)       -179.647          estimate D2E/DX2                !
 ! D53   D(12,11,14,15)        -59.077          estimate D2E/DX2                !
 ! D54   D(13,11,14,15)         58.9155         estimate D2E/DX2                !
 --------------------------------------------------------------------------------
 Trust Radius=3.00D-01 FncErr=1.00D-07 GrdErr=1.00D-06
 Number of steps in this run=    125 maximum allowed number of steps=    144.
 GradGradGradGradGradGradGradGradGradGradGradGradGradGradGradGradGradGrad

                          Input orientation:                          
 ---------------------------------------------------------------------
 Center     Atomic      Atomic             Coordinates (Angstroms)
 Number     Number       Type             X           Y           Z
 ---------------------------------------------------------------------
      1          6           0        0.000000    0.000000    0.000000
      2          8           0        0.000000    0.000000    1.413516
      3          1           0        0.927487    0.000000    1.705916
      4          1           0        0.518025   -0.897246   -0.348146
      5          1           0        0.517855    0.896952   -0.346765
      6          6           0       -1.421472    0.000000   -0.528838
      7          8           0       -2.388894   -0.031101    0.233292
      8          6           0       -1.598381    0.004915   -2.046186
      9          6           0       -0.298033    0.045392   -2.863171
     10          6           0       -0.475503    0.021535   -4.392866
     11          6           0        0.868280    0.042020   -5.121945
     12          1           0        1.456696   -0.851959   -4.890189
     13          1           0        1.450260    0.935079   -4.878545
     14          8           0        0.629072    0.051603   -6.525700
     15          1           0        1.497715    0.058819   -6.962591
     16          1           0       -2.186879   -0.881805   -2.305009
     17          8           0       -2.380652    1.139726   -2.396895
     18          1           0       -3.220032    0.818209   -2.768774
     19          1           0        0.315092    0.921242   -2.614396
     20          8           0        0.442584   -1.096782   -2.443213
     21          1           0        1.278324   -0.786348   -2.056148
     22          1           0       -1.055845    0.887837   -4.729486
     23          8           0       -1.016917   -1.234648   -4.800512
     24          1           0       -1.823387   -1.059831   -5.314954
 ---------------------------------------------------------------------
                    Distance matrix (angstroms):
                    1          2          3          4          5
     1  C    0.000000
     2  O    1.413516   0.000000
     3  H    1.941747   0.972486   0.000000
     4  H    1.092980   2.043735   2.278570   0.000000
     5  H    1.092219   2.042373   2.277240   1.794199   0.000000
     6  C    1.516658   2.406932   3.242180   2.144609   2.144449
     7  O    2.400460   2.664716   3.628770   3.088439   3.105952
     8  C    2.596483   3.811087   4.523086   2.859442   2.856959
     9  C    2.878998   4.287299   4.730805   2.807110   2.779051
    10  C    4.418579   5.825859   6.258114   4.265093   4.257235
    11  C    5.195190   6.593021   6.828247   4.877915   4.863749
    12  H    5.173176   6.525680   6.671919   4.638244   4.958106
    13  H    5.174730   6.524390   6.671041   4.975037   4.626863
    14  O    6.556154   7.964267   8.237185   6.250985   6.237485
    15  H    7.122098   8.509158   8.687441   6.754608   6.740308
    16  H    3.297436   4.403118   5.154064   3.338571   3.783422
    17  O    3.565331   4.635268   5.392200   4.092549   3.558555
    18  H    4.324833   5.341313   6.155829   4.772347   4.454675
    19  H    2.789809   4.143917   4.459687   2.912725   2.276808
    20  O    2.714425   4.034002   4.318950   2.105899   2.894086
    21  H    2.545624   3.780347   3.859346   1.872865   2.516705
    22  H    4.926571   6.295994   6.792368   4.985953   4.656700
    23  O    5.059979   6.416589   6.902077   4.721594   5.170600
    24  H    5.718104   7.051262   7.614668   5.493435   5.830379
                    6          7          8          9         10
     6  C    0.000000
     7  O    1.231956   0.000000
     8  C    1.527634   2.412929   0.000000
     9  C    2.591001   3.737062   1.536232   0.000000
    10  C    3.978195   5.006513   2.601545   1.540140   0.000000
    11  C    5.132384   6.268420   3.942853   2.542117   1.528963
    12  H    5.294437   6.458516   4.260995   2.827210   2.178007
    13  H    5.295391   6.465561   4.263997   2.812437   2.186095
    14  O    6.337961   7.402630   5.002976   3.778053   2.402076
    15  H    7.065288   8.178909   5.810314   4.475504   3.240134
    16  H    2.125608   2.684675   1.095259   2.176919   2.846749
    17  O    2.389276   2.879025   1.422231   2.398392   2.977221
    18  H    2.986904   3.228702   1.952776   3.023944   3.287066
    19  H    2.865989   4.040770   2.196337   1.097691   2.144171
    20  O    2.888333   4.039384   2.353063   1.424584   2.427893
    21  H    3.199987   4.388670   2.983560   1.956522   3.031309
    22  H    4.308988   5.220214   2.876455   2.183375   1.095714
    23  O    4.464887   5.354440   3.075862   2.430758   1.427340
    24  H    4.918504   5.671077   3.445164   3.091838   1.958670
                   11         12         13         14         15
    11  C    0.000000
    12  H    1.095054   0.000000
    13  H    1.093389   1.787088   0.000000
    14  O    1.424023   2.043595   2.041568   0.000000
    15  H    1.945366   2.264078   2.261268   0.972351   0.000000
    16  H    4.257062   4.467626   4.811750   5.158979   6.012826
    17  O    4.380230   4.990848   4.569065   5.223933   6.087337
    18  H    4.780604   5.400153   5.126053   5.433027   6.357823
    19  H    2.714194   3.102698   2.532818   4.019099   4.587937
    20  O    2.941716   2.660085   3.327869   4.245028   4.782624
    21  H    3.202099   2.840407   3.310407   4.593537   4.983535
    22  H    2.138150   3.060323   2.510978   2.600888   3.492091
    23  O    2.299384   2.504647   3.286452   2.709243   3.559637
    24  H    2.914858   3.313998   3.858352   2.952244   3.872442
                   16         17         18         19         20
    16  H    0.000000
    17  O    2.032874   0.000000
    18  H    2.042677   0.972741   0.000000
    19  H    3.099445   2.713315   3.539993   0.000000
    20  O    2.641854   3.602051   4.145834   2.029280   0.000000
    21  H    3.475439   4.148973   4.828835   2.038460   0.971931
    22  H    3.207641   2.694354   2.921121   2.520752   3.378024
    23  O    2.778641   3.643460   3.632616   3.346821   2.775970
    24  H    3.037036   3.696439   3.458422   3.973758   3.658263
                   21         22         23         24
    21  H    0.000000
    22  H    3.924026   0.000000
    23  O    3.605640   2.124030   0.000000
    24  H    4.507241   2.173776   0.972422   0.000000
 Stoichiometry    C6H12O6
 Framework group  C1[X(C6H12O6)]
 Deg. of freedom    66
 Full point group                 C1      NOp   1
 Largest Abelian subgroup         C1      NOp   1
 Largest concise Abelian subgroup C1      NOp   1
                         Standard orientation:                         
 ---------------------------------------------------------------------
 Center     Atomic      Atomic             Coordinates (Angstroms)
 Number     Number       Type             X           Y           Z
 ---------------------------------------------------------------------
      1          6           0        2.357819   -1.035429   -0.185190
      2          8           0        3.743662   -1.313644   -0.177189
      3          1           0        3.852156   -2.263865   -0.353372
      4          1           0        1.878221   -1.633179    0.594096
      5          1           0        1.957094   -1.297951   -1.166742
      6          6           0        2.112416    0.436769    0.084372
      7          8           0        3.044136    1.212054    0.304704
      8          6           0        0.658973    0.906607    0.104880
      9          6           0       -0.390082   -0.176557   -0.188801
     10          6           0       -1.856765    0.290874   -0.140017
     11          6           0       -2.828842   -0.855133   -0.421907
     12          1           0       -2.753274   -1.634160    0.343958
     13          1           0       -2.663444   -1.296259   -1.408593
     14          8           0       -4.158746   -0.346820   -0.393392
     15          1           0       -4.753649   -1.095514   -0.569502
     16          1           0        0.479979    1.358227    1.086507
     17          8           0        0.514423    1.940636   -0.860848
     18          1           0        0.297194    2.761609   -0.386463
     19          1           0       -0.226140   -0.651934   -1.164539
     20          8           0       -0.169954   -1.185502    0.792532
     21          1           0        0.062384   -2.008031    0.329808
     22          1           0       -2.037891    1.077597   -0.880861
     23          8           0       -2.206669    0.657417    1.194342
     24          1           0       -2.548557    1.567540    1.174493
 ---------------------------------------------------------------------
 Rotational constants (GHZ):      1.8556760      0.4476856      0.3955106
 Standard basis: 6-31G(d) (6D, 7F)
 There are   204 symmetry adapted basis functions of A   symmetry.
 Integral buffers will be    131072 words long.
 Raffenetti 2 integral format.
 Two-electron integral symmetry is turned on.
   204 basis functions,   384 primitive gaussians,   204 cartesian basis functions
    48 alpha electrons       48 beta electrons
       nuclear repulsion energy       781.5233031593 Hartrees.
 NAtoms=   24 NActive=   24 NUniq=   24 SFac= 1.00D+00 NAtFMM=   50 NAOKFM=F Big=F
 One-electron integrals computed using PRISM.
 NBasis=   204 RedAO= T  NBF=   204
 NBsUse=   204 1.00D-06 NBFU=   204
 Harris functional with IExCor=  402 diagonalized for initial guess.
 ExpMin= 1.61D-01 ExpMax= 5.48D+03 ExpMxC= 8.25D+02 IAcc=1 IRadAn=         1 AccDes= 0.00D+00
 HarFok:  IExCor=  402 AccDes= 0.00D+00 IRadAn=         1 IDoV= 1
 ScaDFX=  1.000000  1.000000  1.000000  1.000000
 FoFCou: FMM=F IPFlag=           0 FMFlag=      100000 FMFlg1=           0
         NFxFlg=           0 DoJE=T BraDBF=F KetDBF=T FulRan=T
         Omega=  0.000000  0.000000  1.000000  0.000000  0.000000 ICntrl=     500 IOpCl=  0
         NMat0=    1 NMatS0=    1 NMatT0=    0 NMatD0=    1 NMtDS0=    0 NMtDT0=    0
         I1Cent=           4 NGrid=           0.
 Petite list used in FoFCou.
 Initial guess orbital symmetries:
       Occupied  (A) (A) (A) (A) (A) (A) (A) (A) (A) (A) (A) (A)
                 (A) (A) (A) (A) (A) (A) (A) (A) (A) (A) (A) (A)
                 (A) (A) (A) (A) (A) (A) (A) (A) (A) (A) (A) (A)
                 (A) (A) (A) (A) (A) (A) (A) (A) (A) (A) (A) (A)
       Virtual   (A) (A) (A) (A) (A) (A) (A) (A) (A) (A) (A) (A)
                 (A) (A) (A) (A) (A) (A) (A) (A) (A) (A) (A) (A)
                 (A) (A) (A) (A) (A) (A) (A) (A) (A) (A) (A) (A)
                 (A) (A) (A) (A) (A) (A) (A) (A) (A) (A) (A) (A)
                 (A) (A) (A) (A) (A) (A) (A) (A) (A) (A) (A) (A)
                 (A) (A) (A) (A) (A) (A) (A) (A) (A) (A) (A) (A)
                 (A) (A) (A) (A) (A) (A) (A) (A) (A) (A) (A) (A)
                 (A) (A) (A) (A) (A) (A) (A) (A) (A) (A) (A) (A)
                 (A) (A) (A) (A) (A) (A) (A) (A) (A) (A) (A) (A)
                 (A) (A) (A) (A) (A) (A) (A) (A) (A) (A) (A) (A)
                 (A) (A) (A) (A) (A) (A) (A) (A) (A) (A) (A) (A)
                 (A) (A) (A) (A) (A) (A) (A) (A) (A) (A) (A) (A)
                 (A) (A) (A) (A) (A) (A) (A) (A) (A) (A) (A) (A)
 The electronic state of the initial guess is 1-A.
 Requested convergence on RMS density matrix=1.00D-08 within 128 cycles.
 Requested convergence on MAX density matrix=1.00D-06.
 Requested convergence on             energy=1.00D-06.
 No special actions if energy rises.
 Keep R1 ints in memory in canonical form, NReq=223281102.
 Integral accuracy reduced to 1.0D-05 until final iterations.
 Initial convergence to 1.0D-05 achieved.  Increase integral accuracy.
 SCF Done:  E(RB3LYP) =  -687.087588102     A.U. after   14 cycles
             Convg  =    0.6484D-08             -V/T =  2.0084

 **********************************************************************

            Population analysis using the SCF density.

 **********************************************************************

 Orbital symmetries:
       Occupied  (A) (A) (A) (A) (A) (A) (A) (A) (A) (A) (A) (A)
                 (A) (A) (A) (A) (A) (A) (A) (A) (A) (A) (A) (A)
                 (A) (A) (A) (A) (A) (A) (A) (A) (A) (A) (A) (A)
                 (A) (A) (A) (A) (A) (A) (A) (A) (A) (A) (A) (A)
       Virtual   (A) (A) (A) (A) (A) (A) (A) (A) (A) (A) (A) (A)
                 (A) (A) (A) (A) (A) (A) (A) (A) (A) (A) (A) (A)
                 (A) (A) (A) (A) (A) (A) (A) (A) (A) (A) (A) (A)
                 (A) (A) (A) (A) (A) (A) (A) (A) (A) (A) (A) (A)
                 (A) (A) (A) (A) (A) (A) (A) (A) (A) (A) (A) (A)
                 (A) (A) (A) (A) (A) (A) (A) (A) (A) (A) (A) (A)
                 (A) (A) (A) (A) (A) (A) (A) (A) (A) (A) (A) (A)
                 (A) (A) (A) (A) (A) (A) (A) (A) (A) (A) (A) (A)
                 (A) (A) (A) (A) (A) (A) (A) (A) (A) (A) (A) (A)
                 (A) (A) (A) (A) (A) (A) (A) (A) (A) (A) (A) (A)
                 (A) (A) (A) (A) (A) (A) (A) (A) (A) (A) (A) (A)
                 (A) (A) (A) (A) (A) (A) (A) (A) (A) (A) (A) (A)
                 (A) (A) (A) (A) (A) (A) (A) (A) (A) (A) (A) (A)
 The electronic state is 1-A.
 Alpha  occ. eigenvalues --  -19.16333 -19.16012 -19.14860 -19.14464 -19.14167
 Alpha  occ. eigenvalues --  -19.14134 -10.27647 -10.25389 -10.25048 -10.24471
 Alpha  occ. eigenvalues --  -10.24186 -10.23009  -1.05356  -1.04080  -1.02809
 Alpha  occ. eigenvalues --   -1.02639  -1.00994  -1.00591  -0.78346  -0.75324
 Alpha  occ. eigenvalues --   -0.70906  -0.65093  -0.58980  -0.56791  -0.54205
 Alpha  occ. eigenvalues --   -0.53296  -0.52576  -0.51801  -0.49154  -0.48116
 Alpha  occ. eigenvalues --   -0.46937  -0.44601  -0.43334  -0.42650  -0.41307
 Alpha  occ. eigenvalues --   -0.40248  -0.36876  -0.36006  -0.34871  -0.34575
 Alpha  occ. eigenvalues --   -0.33475  -0.33102  -0.31244  -0.28782  -0.27481
 Alpha  occ. eigenvalues --   -0.26765  -0.25941  -0.24152
 Alpha virt. eigenvalues --   -0.02965   0.03381   0.05179   0.06261   0.06936
 Alpha virt. eigenvalues --    0.09177   0.11322   0.13066   0.15268   0.15485
 Alpha virt. eigenvalues --    0.15852   0.16798   0.17997   0.19257   0.20634
 Alpha virt. eigenvalues --    0.21146   0.21475   0.23165   0.25415   0.28433
 Alpha virt. eigenvalues --    0.29387   0.30270   0.34740   0.37692   0.53113
 Alpha virt. eigenvalues --    0.53932   0.54148   0.55696   0.56181   0.59107
 Alpha virt. eigenvalues --    0.59614   0.60959   0.62912   0.64798   0.66333
 Alpha virt. eigenvalues --    0.67292   0.68676   0.71253   0.71759   0.75493
 Alpha virt. eigenvalues --    0.77258   0.79021   0.80565   0.80928   0.81928
 Alpha virt. eigenvalues --    0.82792   0.83301   0.84406   0.85073   0.86822
 Alpha virt. eigenvalues --    0.89705   0.90853   0.91606   0.92055   0.93675
 Alpha virt. eigenvalues --    0.94837   0.95475   0.97235   0.99110   0.99218
 Alpha virt. eigenvalues --    1.00311   1.01575   1.02644   1.04403   1.06275
 Alpha virt. eigenvalues --    1.08260   1.09567   1.11636   1.13485   1.15267
 Alpha virt. eigenvalues --    1.18514   1.20313   1.23706   1.27387   1.29392
 Alpha virt. eigenvalues --    1.32633   1.33094   1.37513   1.41742   1.42635
 Alpha virt. eigenvalues --    1.48748   1.50995   1.54592   1.55419   1.60251
 Alpha virt. eigenvalues --    1.61728   1.63179   1.65556   1.68745   1.69873
 Alpha virt. eigenvalues --    1.71772   1.73951   1.74416   1.75322   1.76820
 Alpha virt. eigenvalues --    1.78767   1.80787   1.81672   1.82524   1.88282
 Alpha virt. eigenvalues --    1.89679   1.90621   1.91075   1.95680   1.97707
 Alpha virt. eigenvalues --    1.99173   2.01047   2.02142   2.08127   2.10059
 Alpha virt. eigenvalues --    2.10519   2.12593   2.15460   2.16868   2.17288
 Alpha virt. eigenvalues --    2.19731   2.23816   2.25046   2.30187   2.32359
 Alpha virt. eigenvalues --    2.34856   2.36216   2.40020   2.42237   2.44687
 Alpha virt. eigenvalues --    2.48628   2.50637   2.52963   2.53114   2.55337
 Alpha virt. eigenvalues --    2.59028   2.62208   2.65781   2.66571   2.68045
 Alpha virt. eigenvalues --    2.72400   2.79374   2.85797   2.89290   2.92782
 Alpha virt. eigenvalues --    2.96809   2.99276   3.02428   3.04914   3.68883
 Alpha virt. eigenvalues --    3.74590   3.77750   3.81646   3.92219   4.05895
 Alpha virt. eigenvalues --    4.16662   4.28229   4.40166   4.42767   4.56678
 Alpha virt. eigenvalues --    4.72324
          Condensed to atoms (all electrons):
              1          2          3          4          5          6
     1  C    5.194432   0.216413  -0.022264   0.342858   0.343611   0.263036
     2  O    0.216413   8.257269   0.231896  -0.031979  -0.038232  -0.033254
     3  H   -0.022264   0.231896   0.401106  -0.003964  -0.004344   0.006541
     4  H    0.342858  -0.031979  -0.003964   0.583182  -0.047149  -0.027528
     5  H    0.343611  -0.038232  -0.004344  -0.047149   0.634024  -0.037436
     6  C    0.263036  -0.033254   0.006541  -0.027528  -0.037436   4.640174
     7  O   -0.081135   0.002631   0.000236  -0.000219   0.000530   0.562635
     8  C   -0.128282   0.001873  -0.000226   0.006254   0.006266   0.269565
     9  C    0.006424   0.000079   0.000015  -0.007578  -0.001244  -0.040783
    10  C    0.000119   0.000000   0.000000   0.000288   0.000203   0.002754
    11  C   -0.000007   0.000000   0.000000  -0.000019  -0.000011   0.000024
    12  H   -0.000001   0.000000   0.000000  -0.000009   0.000001   0.000001
    13  H    0.000002   0.000000   0.000000  -0.000001  -0.000010   0.000000
    14  O    0.000000   0.000000   0.000000   0.000000   0.000000   0.000000
    15  H    0.000000   0.000000   0.000000   0.000000   0.000000   0.000000
    16  H    0.006299  -0.000045   0.000005  -0.000446   0.000164  -0.029055
    17  O    0.002672  -0.000006   0.000001   0.000092  -0.000051  -0.043219
    18  H   -0.000228   0.000001   0.000000   0.000000  -0.000017   0.002103
    19  H   -0.000639  -0.000052   0.000006   0.000550   0.005776  -0.006036
    20  O   -0.015806   0.000379   0.000012   0.020988  -0.001252   0.000507
    21  H    0.007076  -0.000240  -0.000060  -0.001145   0.000675  -0.002036
    22  H   -0.000014   0.000000   0.000000  -0.000007   0.000000   0.000221
    23  O   -0.000001   0.000000   0.000000  -0.000003  -0.000001   0.000223
    24  H    0.000000   0.000000   0.000000   0.000000   0.000000   0.000003
              7          8          9         10         11         12
     1  C   -0.081135  -0.128282   0.006424   0.000119  -0.000007  -0.000001
     2  O    0.002631   0.001873   0.000079   0.000000   0.000000   0.000000
     3  H    0.000236  -0.000226   0.000015   0.000000   0.000000   0.000000
     4  H   -0.000219   0.006254  -0.007578   0.000288  -0.000019  -0.000009
     5  H    0.000530   0.006266  -0.001244   0.000203  -0.000011   0.000001
     6  C    0.562635   0.269565  -0.040783   0.002754   0.000024   0.000001
     7  O    8.002880  -0.058599   0.003067  -0.000048   0.000000   0.000000
     8  C   -0.058599   5.167137   0.267519  -0.022412   0.004309  -0.000015
     9  C    0.003067   0.267519   5.144212   0.268059  -0.048526  -0.005856
    10  C   -0.000048  -0.022412   0.268059   4.958735   0.347276  -0.026084
    11  C    0.000000   0.004309  -0.048526   0.347276   4.914645   0.355561
    12  H    0.000000  -0.000015  -0.005856  -0.026084   0.355561   0.615439
    13  H    0.000000  -0.000166   0.005174  -0.043721   0.339396  -0.051841
    14  O    0.000000  -0.000023   0.001964  -0.043354   0.241281  -0.040123
    15  H    0.000000   0.000002  -0.000227   0.006181  -0.023006  -0.003591
    16  H   -0.001090   0.344952  -0.043369  -0.008954   0.000339   0.000012
    17  O   -0.000958   0.207878  -0.060543   0.005860   0.000190  -0.000006
    18  H    0.000855  -0.014144   0.004164   0.000611   0.000014   0.000001
    19  H    0.000012  -0.041095   0.353063  -0.046914  -0.000396   0.000249
    20  O   -0.000105  -0.042977   0.170464  -0.045764  -0.003590   0.009671
    21  H    0.000014   0.007438  -0.015163   0.001968   0.000797   0.000281
    22  H   -0.000001  -0.003416  -0.044131   0.347982  -0.043730   0.006749
    23  O    0.000000   0.001445  -0.057265   0.224422  -0.070016  -0.003006
    24  H    0.000000   0.000607   0.004524  -0.017959   0.005013  -0.000163
             13         14         15         16         17         18
     1  C    0.000002   0.000000   0.000000   0.006299   0.002672  -0.000228
     2  O    0.000000   0.000000   0.000000  -0.000045  -0.000006   0.000001
     3  H    0.000000   0.000000   0.000000   0.000005   0.000001   0.000000
     4  H   -0.000001   0.000000   0.000000  -0.000446   0.000092   0.000000
     5  H   -0.000010   0.000000   0.000000   0.000164  -0.000051  -0.000017
     6  C    0.000000   0.000000   0.000000  -0.029055  -0.043219   0.002103
     7  O    0.000000   0.000000   0.000000  -0.001090  -0.000958   0.000855
     8  C   -0.000166  -0.000023   0.000002   0.344952   0.207878  -0.014144
     9  C    0.005174   0.001964  -0.000227  -0.043369  -0.060543   0.004164
    10  C   -0.043721  -0.043354   0.006181  -0.008954   0.005860   0.000611
    11  C    0.339396   0.241281  -0.023006   0.000339   0.000190   0.000014
    12  H   -0.051841  -0.040123  -0.003591   0.000012  -0.000006   0.000001
    13  H    0.689501  -0.041426  -0.004663  -0.000011  -0.000003  -0.000001
    14  O   -0.041426   8.271834   0.235296  -0.000001   0.000000   0.000000
    15  H   -0.004663   0.235296   0.397555   0.000000   0.000000   0.000000
    16  H   -0.000011  -0.000001   0.000000   0.578818  -0.025619  -0.013304
    17  O   -0.000003   0.000000   0.000000  -0.025619   8.282814   0.234992
    18  H   -0.000001   0.000000   0.000000  -0.013304   0.234992   0.379071
    19  H    0.004016  -0.000030  -0.000005   0.006084   0.002078  -0.000213
    20  O    0.000168   0.000050   0.000009   0.001884   0.001694  -0.000130
    21  H   -0.000048  -0.000002  -0.000001  -0.000318  -0.000172   0.000004
    22  H   -0.003300   0.003500  -0.000141   0.000724   0.010113  -0.000265
    23  O    0.005395   0.002735   0.000072   0.010905  -0.000234   0.000118
    24  H   -0.000335   0.001064   0.000004  -0.000389   0.000066   0.000090
             19         20         21         22         23         24
     1  C   -0.000639  -0.015806   0.007076  -0.000014  -0.000001   0.000000
     2  O   -0.000052   0.000379  -0.000240   0.000000   0.000000   0.000000
     3  H    0.000006   0.000012  -0.000060   0.000000   0.000000   0.000000
     4  H    0.000550   0.020988  -0.001145  -0.000007  -0.000003   0.000000
     5  H    0.005776  -0.001252   0.000675   0.000000  -0.000001   0.000000
     6  C   -0.006036   0.000507  -0.002036   0.000221   0.000223   0.000003
     7  O    0.000012  -0.000105   0.000014  -0.000001   0.000000   0.000000
     8  C   -0.041095  -0.042977   0.007438  -0.003416   0.001445   0.000607
     9  C    0.353063   0.170464  -0.015163  -0.044131  -0.057265   0.004524
    10  C   -0.046914  -0.045764   0.001968   0.347982   0.224422  -0.017959
    11  C   -0.000396  -0.003590   0.000797  -0.043730  -0.070016   0.005013
    12  H    0.000249   0.009671   0.000281   0.006749  -0.003006  -0.000163
    13  H    0.004016   0.000168  -0.000048  -0.003300   0.005395  -0.000335
    14  O   -0.000030   0.000050  -0.000002   0.003500   0.002735   0.001064
    15  H   -0.000005   0.000009  -0.000001  -0.000141   0.000072   0.000004
    16  H    0.006084   0.001884  -0.000318   0.000724   0.010905  -0.000389
    17  O    0.002078   0.001694  -0.000172   0.010113  -0.000234   0.000066
    18  H   -0.000213  -0.000130   0.000004  -0.000265   0.000118   0.000090
    19  H    0.642336  -0.034459  -0.015783   0.001658   0.003358  -0.000203
    20  O   -0.034459   8.328322   0.219813   0.003144   0.000673   0.000002
    21  H   -0.015783   0.219813   0.402024  -0.000113   0.000004  -0.000007
    22  H    0.001658   0.003144  -0.000113   0.610756  -0.027047  -0.011350
    23  O    0.003358   0.000673   0.000004  -0.027047   8.284969   0.231460
    24  H   -0.000203   0.000002  -0.000007  -0.011350   0.231460   0.389558
 Mulliken atomic charges:
              1
     1  C   -0.134565
     2  O   -0.606734
     3  H    0.391038
     4  H    0.165833
     5  H    0.138495
     6  C    0.471559
     7  O   -0.430706
     8  C    0.026110
     9  C    0.095954
    10  C    0.090751
    11  C   -0.019545
    12  H    0.142728
    13  H    0.101872
    14  O   -0.632765
    15  H    0.392515
    16  H    0.172415
    17  O   -0.617641
    18  H    0.406278
    19  H    0.126640
    20  O   -0.613697
    21  H    0.394993
    22  H    0.148666
    23  O   -0.608207
    24  H    0.398014
 Sum of Mulliken atomic charges =   0.00000
 Mulliken charges with hydrogens summed into heavy atoms:
              1
     1  C    0.169763
     2  O   -0.215695
     6  C    0.471559
     7  O   -0.430706
     8  C    0.198525
     9  C    0.222594
    10  C    0.239416
    11  C    0.225055
    14  O   -0.240250
    17  O   -0.211363
    20  O   -0.218704
    23  O   -0.210193
 Sum of Mulliken charges with hydrogens summed into heavy atoms =   0.00000
 Electronic spatial extent (au):  <R**2>=           2749.0086
 Charge=              0.0000 electrons
 Dipole moment (field-independent basis, Debye):
    X=             -3.3716    Y=             -2.9901    Z=             -1.8000  Tot=              4.8527
 Quadrupole moment (field-independent basis, Debye-Ang):
   XX=            -84.6299   YY=            -52.5527   ZZ=            -74.1651
   XY=             -7.7252   XZ=              1.8619   YZ=              6.8930
 Traceless Quadrupole moment (field-independent basis, Debye-Ang):
   XX=            -14.1807   YY=             17.8966   ZZ=             -3.7159
   XY=             -7.7252   XZ=              1.8619   YZ=              6.8930
 Octapole moment (field-independent basis, Debye-Ang**2):
  XXX=            -84.3379  YYY=             -1.6153  ZZZ=              1.1450  XYY=             -6.3265
  XXY=            -57.0438  XXZ=            -15.3040  XZZ=              2.9460  YZZ=             -0.2580
  YYZ=              4.3689  XYZ=             -4.9002
 Hexadecapole moment (field-independent basis, Debye-Ang**3):
 XXXX=          -2572.4828 YYYY=           -404.7776 ZZZZ=           -214.1379 XXXY=             21.8435
 XXXZ=              6.2013 YYYX=            -84.9557 YYYZ=             14.1801 ZZZX=              0.4656
 ZZZY=              8.1045 XXYY=           -375.2140 XXZZ=           -446.8443 YYZZ=           -127.2378
 XXYZ=             40.9517 YYXZ=            -15.4346 ZZXY=             -7.5307
 N-N= 7.815233031593D+02 E-N=-3.175012822961D+03  KE= 6.813480790876D+02
 Calling FoFJK, ICntrl=      2127 FMM=F ISym2X=0 I1Cent= 0 IOpClX= 0 NMat=1 NMatS=1 NMatT=0.
 ***** Axes restored to original set *****
 -------------------------------------------------------------------
 Center     Atomic                   Forces (Hartrees/Bohr)
 Number     Number              X              Y              Z
 -------------------------------------------------------------------
      1        6           0.004767236   -0.003364160    0.027393964
      2        8          -0.003656422    0.002488547    0.007673548
      3        1          -0.003932486   -0.000296368   -0.001931180
      4        1          -0.002922854    0.001834656   -0.002891924
      5        1           0.003363962    0.004044748   -0.010378766
      6        6          -0.017163167   -0.007178703    0.028251427
      7        8           0.023811338    0.002357147   -0.025414794
      8        6          -0.011060926    0.008356173   -0.014201170
      9        6           0.006116541   -0.003010086    0.002118099
     10        6           0.016740812   -0.013783442   -0.007951270
     11        6           0.010763170    0.007495831   -0.008656471
     12        1          -0.002254215   -0.000619128    0.009902188
     13        1           0.003470358    0.004565311    0.008731132
     14        8          -0.005207779    0.002927687   -0.005623245
     15        1          -0.004073788   -0.000539948    0.001654837
     16        1           0.009320055   -0.007528139    0.000046035
     17        8          -0.009564767    0.008183351   -0.006045430
     18        1           0.003945129    0.004228245    0.004993127
     19        1          -0.009669262    0.007894266   -0.000741165
     20        8           0.013909543   -0.012019306   -0.007427379
     21        1          -0.003254752   -0.003917017   -0.006957621
     22        1          -0.003986332   -0.001835175    0.002050221
     23        8          -0.024520345    0.002214596    0.004607179
     24        1           0.005058954   -0.002499087    0.000798657
 -------------------------------------------------------------------
 Cartesian Forces:  Max     0.028251427 RMS     0.009595582

 GradGradGradGradGradGradGradGradGradGradGradGradGradGradGradGradGradGrad
 Berny optimization.
 Internal  Forces:  Max     0.045430987 RMS     0.010244970
 Search for a local minimum.
 Step number   1 out of a maximum of  125
 All quantities printed in internal units (Hartrees-Bohrs-Radians)
 Mixed Optimization -- RFO/linear search
 Second derivative matrix not updated -- first step.
 ITU=  0
     Eigenvalues ---    0.00235   0.00287   0.00383   0.00400   0.00474
     Eigenvalues ---    0.00546   0.01330   0.01367   0.01374   0.01398
     Eigenvalues ---    0.01513   0.03781   0.04319   0.04406   0.04772
     Eigenvalues ---    0.05234   0.05249   0.05269   0.05567   0.06358
     Eigenvalues ---    0.07288   0.07362   0.07927   0.08492   0.11472
     Eigenvalues ---    0.11550   0.13692   0.13970   0.15909   0.16000
     Eigenvalues ---    0.16000   0.16000   0.16000   0.16000   0.17086
     Eigenvalues ---    0.18243   0.19154   0.19519   0.19782   0.22028
     Eigenvalues ---    0.22170   0.24991   0.25000   0.28507   0.28855
     Eigenvalues ---    0.29519   0.29643   0.30691   0.33939   0.34161
     Eigenvalues ---    0.34212   0.34235   0.34424   0.34470   0.34557
     Eigenvalues ---    0.41374   0.41777   0.41860   0.42126   0.43452
     Eigenvalues ---    0.52821   0.52872   0.52885   0.52899   0.52984
     Eigenvalues ---    0.90276
 RFO step:  Lambda=-4.94477094D-02 EMin= 2.34970769D-03
 Linear search not attempted -- first point.
 Maximum step size (   0.300) exceeded in Quadratic search.
    -- Step size scaled by   0.798
 Iteration  1 RMS(Cart)=  0.25065126 RMS(Int)=  0.01238039
 Iteration  2 RMS(Cart)=  0.03323542 RMS(Int)=  0.00076587
 Iteration  3 RMS(Cart)=  0.00060053 RMS(Int)=  0.00073904
 Iteration  4 RMS(Cart)=  0.00000035 RMS(Int)=  0.00073904
 Variable       Old X    -DE/DX   Delta X   Delta X   Delta X     New X
                                 (Linear)    (Quad)   (Total)
    R1        2.67116   0.00574   0.00000   0.00947   0.00947   2.68063
    R2        2.06543  -0.00197   0.00000  -0.00399  -0.00399   2.06145
    R3        2.06400   0.00821   0.00000   0.01660   0.01660   2.08059
    R4        2.86607   0.00470   0.00000   0.01053   0.01053   2.87660
    R5        1.83773  -0.00433   0.00000  -0.00598  -0.00598   1.83175
    R6        2.32806  -0.03448   0.00000  -0.02891  -0.02891   2.29915
    R7        2.88681   0.02304   0.00000   0.05320   0.05320   2.94001
    R8        2.90306   0.00625   0.00000   0.01477   0.01477   2.91783
    R9        2.06974   0.00108   0.00000   0.00219   0.00219   2.07193
   R10        2.68763   0.01325   0.00000   0.02248   0.02248   2.71011
   R11        2.91044  -0.00498   0.00000  -0.01188  -0.01188   2.89856
   R12        2.07433   0.00073   0.00000   0.00150   0.00150   2.07583
   R13        2.69207   0.01408   0.00000   0.02405   0.02405   2.71613
   R14        2.88932  -0.00031   0.00000  -0.00072  -0.00072   2.88860
   R15        2.07060   0.00003   0.00000   0.00006   0.00006   2.07066
   R16        2.69728   0.00609   0.00000   0.01049   0.01049   2.70778
   R17        2.06935   0.00139   0.00000   0.00283   0.00283   2.07218
   R18        2.06621   0.00752   0.00000   0.01525   0.01525   2.08146
   R19        2.69101   0.00549   0.00000   0.00936   0.00936   2.70038
   R20        1.83748  -0.00439   0.00000  -0.00606  -0.00606   1.83142
   R21        1.83821  -0.00671   0.00000  -0.00928  -0.00928   1.82894
   R22        1.83668  -0.00682   0.00000  -0.00940  -0.00940   1.82728
   R23        1.83761  -0.00507   0.00000  -0.00699  -0.00699   1.83062
    A1        1.89497   0.00729   0.00000   0.03073   0.03046   1.92544
    A2        1.89387   0.00718   0.00000   0.03013   0.02986   1.92374
    A3        1.92697  -0.01001   0.00000  -0.02796  -0.02787   1.89909
    A4        1.92656  -0.00181   0.00000  -0.00882  -0.00941   1.91715
    A5        1.91043  -0.00132   0.00000  -0.01183  -0.01174   1.89870
    A6        1.91099  -0.00129   0.00000  -0.01183  -0.01175   1.89925
    A7        1.87619  -0.00121   0.00000  -0.00463  -0.00463   1.87157
    A8        2.11798  -0.01663   0.00000  -0.04396  -0.04450   2.07347
    A9        2.04303   0.04543   0.00000   0.12151   0.12098   2.16401
   A10        2.12188  -0.02870   0.00000  -0.07615  -0.07666   2.04522
   A11        2.01561   0.03970   0.00000   0.13145   0.13216   2.14777
   A12        1.86956  -0.00824   0.00000  -0.02087  -0.01996   1.84960
   A13        1.88725  -0.01910   0.00000  -0.05905  -0.05862   1.82863
   A14        1.92887  -0.01555   0.00000  -0.05907  -0.05929   1.86958
   A15        1.88958  -0.00973   0.00000  -0.02884  -0.02800   1.86158
   A16        1.86730   0.01145   0.00000   0.03105   0.02937   1.89666
   A17        2.01558  -0.01829   0.00000  -0.07092  -0.07106   1.94452
   A18        1.95335  -0.00142   0.00000  -0.01234  -0.01578   1.93757
   A19        1.83605   0.02291   0.00000   0.08535   0.08371   1.91976
   A20        1.87740   0.00663   0.00000  -0.00030  -0.00158   1.87582
   A21        1.91801  -0.01110   0.00000  -0.04156  -0.03930   1.87871
   A22        1.85723   0.00246   0.00000   0.04942   0.04858   1.90581
   A23        1.95210  -0.00613   0.00000  -0.00914  -0.00935   1.94275
   A24        1.93255   0.00122   0.00000  -0.01809  -0.01862   1.91393
   A25        1.91878  -0.00530   0.00000  -0.01288  -0.01363   1.90515
   A26        1.88432  -0.00064   0.00000  -0.00099  -0.00094   1.88338
   A27        1.78133   0.01688   0.00000   0.07952   0.07958   1.86091
   A28        1.99016  -0.00525   0.00000  -0.03163  -0.03258   1.95758
   A29        1.93950  -0.00573   0.00000  -0.03273  -0.03265   1.90684
   A30        1.95260  -0.00072   0.00000  -0.01206  -0.01205   1.94055
   A31        1.89918  -0.01123   0.00000  -0.03058  -0.03044   1.86874
   A32        1.91100   0.00007   0.00000  -0.00221  -0.00349   1.90751
   A33        1.88009   0.01108   0.00000   0.04975   0.04918   1.92927
   A34        1.87901   0.00735   0.00000   0.03225   0.03183   1.91084
   A35        1.86806   0.00064   0.00000   0.00246   0.00246   1.87052
   A36        1.88091   0.00390   0.00000   0.01487   0.01487   1.89577
   A37        1.88426   0.00290   0.00000   0.01105   0.01105   1.89530
   A38        1.88331   0.00311   0.00000   0.01185   0.01185   1.89516
    D1        1.04720   0.00294   0.00000   0.01015   0.01069   1.05789
    D2       -1.04720  -0.00329   0.00000  -0.01458  -0.01512  -1.06232
    D3        3.14159  -0.00017   0.00000  -0.00204  -0.00204   3.13955
    D4       -0.02957  -0.00063   0.00000  -0.00795  -0.00767  -0.03724
    D5        3.13798  -0.00461   0.00000  -0.06764  -0.06792   3.07006
    D6        2.05550   0.00135   0.00000   0.00527   0.00554   2.06104
    D7       -1.06014  -0.00262   0.00000  -0.05443  -0.05470  -1.11484
    D8       -2.11363  -0.00251   0.00000  -0.02043  -0.02016  -2.13379
    D9        1.05392  -0.00648   0.00000  -0.08013  -0.08040   0.97351
   D10       -0.02602   0.00213   0.00000   0.03846   0.03713   0.01112
   D11        2.13081   0.00271   0.00000   0.03548   0.03543   2.16624
   D12       -2.14533   0.00244   0.00000   0.03194   0.03247  -2.11286
   D13        3.14159  -0.00204   0.00000  -0.02190  -0.02266   3.11893
   D14       -0.98477  -0.00146   0.00000  -0.02488  -0.02437  -1.00914
   D15        1.02227  -0.00173   0.00000  -0.02842  -0.02732   0.99495
   D16        3.12086   0.00614   0.00000   0.06763   0.06591  -3.09642
   D17       -1.00654  -0.00060   0.00000   0.00026   0.00014  -1.00640
   D18        1.00309   0.01472   0.00000   0.10155   0.10181   1.10490
   D19        0.99555   0.00022   0.00000   0.04552   0.04516   1.04071
   D20       -3.13185  -0.00652   0.00000  -0.02185  -0.02060   3.13073
   D21       -1.12221   0.00881   0.00000   0.07944   0.08106  -1.04115
   D22       -1.04427   0.00083   0.00000   0.05806   0.05655  -0.98771
   D23        1.11152  -0.00592   0.00000  -0.00931  -0.00921   1.10231
   D24        3.12116   0.00941   0.00000   0.09198   0.09245  -3.06958
   D25       -2.00853   0.01627   0.00000   0.06957   0.06988  -1.93865
   D26        2.07914  -0.01417   0.00000  -0.03606  -0.03661   2.04253
   D27        0.00000   0.00310   0.00000   0.03204   0.03227   0.03227
   D28       -3.12566  -0.01168   0.00000  -0.05756  -0.05789   3.09964
   D29        1.05505  -0.00758   0.00000  -0.03769  -0.03818   1.01687
   D30       -1.15972   0.00228   0.00000   0.02634   0.02563  -1.13409
   D31        0.96229  -0.00178   0.00000   0.01111   0.01114   0.97343
   D32       -1.14019   0.00232   0.00000   0.03097   0.03085  -1.10934
   D33        2.92823   0.01218   0.00000   0.09501   0.09466   3.02288
   D34       -1.05269  -0.00255   0.00000  -0.02557  -0.02473  -1.07742
   D35        3.12801   0.00155   0.00000  -0.00570  -0.00503   3.12299
   D36        0.91324   0.01141   0.00000   0.05834   0.05879   0.97203
   D37       -2.07517  -0.01123   0.00000  -0.07283  -0.07501  -2.15018
   D38        2.02772   0.00299   0.00000  -0.01638  -0.01634   2.01138
   D39        0.00000  -0.00055   0.00000  -0.02207  -0.01992  -0.01992
   D40        1.09888  -0.00089   0.00000   0.00767   0.00787   1.10675
   D41       -1.04308   0.00369   0.00000   0.04292   0.04302  -1.00005
   D42       -3.11698   0.00228   0.00000   0.03010   0.03036  -3.08663
   D43       -3.05394  -0.00367   0.00000  -0.02141  -0.02162  -3.07556
   D44        1.08729   0.00091   0.00000   0.01385   0.01353   1.10083
   D45       -0.98661  -0.00050   0.00000   0.00102   0.00087  -0.98575
   D46       -0.95145  -0.00145   0.00000  -0.01797  -0.01791  -0.96936
   D47       -3.09340   0.00312   0.00000   0.01729   0.01724  -3.07616
   D48        1.11588   0.00172   0.00000   0.00446   0.00458   1.12045
   D49        2.18207  -0.00089   0.00000  -0.01339  -0.01318   2.16889
   D50       -2.02702  -0.00132   0.00000   0.01265   0.01318  -2.01384
   D51        0.00000   0.00568   0.00000   0.04485   0.04412   0.04412
   D52       -3.13543   0.00156   0.00000   0.00861   0.00878  -3.12665
   D53       -1.03109  -0.00527   0.00000  -0.01914  -0.02021  -1.05130
   D54        1.02827   0.00460   0.00000   0.02178   0.02269   1.05096
         Item               Value     Threshold  Converged?
 Maximum Force            0.045431     0.000450     NO 
 RMS     Force            0.010245     0.000300     NO 
 Maximum Displacement     0.950893     0.001800     NO 
 RMS     Displacement     0.272507     0.001200     NO 
 Predicted change in Energy=-2.832337D-02
 GradGradGradGradGradGradGradGradGradGradGradGradGradGradGradGradGradGrad

                          Input orientation:                          
 ---------------------------------------------------------------------
 Center     Atomic      Atomic             Coordinates (Angstroms)
 Number     Number       Type             X           Y           Z
 ---------------------------------------------------------------------
      1          6           0       -0.063903    0.030813    0.308282
      2          8           0       -0.405169    0.141238    1.680713
      3          1           0        0.424296    0.170421    2.181434
      4          1           0        0.504101   -0.883594    0.131562
      5          1           0        0.526301    0.904564   -0.008612
      6          6           0       -1.344369   -0.020954   -0.513249
      7          8           0       -2.413849   -0.005184    0.066593
      8          6           0       -1.379409   -0.049530   -2.068376
      9          6           0       -0.104819   -0.042330   -2.939843
     10          6           0       -0.448471   -0.010849   -4.434370
     11          6           0        0.814104    0.055936   -5.293443
     12          1           0        1.404340   -0.855420   -5.140225
     13          1           0        1.426320    0.933961   -5.033682
     14          8           0        0.390568    0.156038   -6.654535
     15          1           0        1.190024    0.184688   -7.201612
     16          1           0       -1.951667   -0.944170   -2.340913
     17          8           0       -2.137084    1.110509   -2.438457
     18          1           0       -2.981886    0.821590   -2.812001
     19          1           0        0.514253    0.839306   -2.725054
     20          8           0        0.664800   -1.231238   -2.694787
     21          1           0        1.553266   -0.971247   -2.415436
     22          1           0       -1.053411    0.875748   -4.654953
     23          8           0       -1.121018   -1.225704   -4.787909
     24          1           0       -1.971923   -1.000982   -5.192732
 ---------------------------------------------------------------------
                    Distance matrix (angstroms):
                    1          2          3          4          5
     1  C    0.000000
     2  O    1.418529   0.000000
     3  H    1.940754   0.969322   0.000000
     4  H    1.090870   2.068072   2.306359   0.000000
     5  H    1.101002   2.074639   2.312071   1.793781   0.000000
     6  C    1.522231   2.392044   3.228950   2.139338   2.147243
     7  O    2.362616   2.581011   3.543791   3.047992   3.078600
     8  C    2.717631   3.878300   4.621971   3.013802   2.963892
     9  C    3.249206   4.633945   5.152932   3.242227   3.144366
    10  C    4.758401   6.117128   6.675586   4.745188   4.623364
    11  C    5.670172   7.080449   7.485909   5.514480   5.360264
    12  H    5.712038   7.126910   7.457850   5.348173   5.495630
    13  H    5.618988   7.004703   7.324271   5.552814   5.105117
    14  O    6.978757   8.373158   8.836045   6.866209   6.689320
    15  H    7.615414   9.024535   9.414250   7.442255   7.259339
    16  H    3.395950   4.443337   5.228684   3.485340   3.872695
    17  O    3.606716   4.572371   5.365428   4.190143   3.611119
    18  H    4.344666   5.223680   6.079514   4.870761   4.491464
    19  H    3.192029   4.554494   4.952688   3.335976   2.717252
    20  O    3.337994   4.708877   5.079372   2.852179   3.434584
    21  H    3.322349   4.674562   4.869209   2.756017   3.219647
    22  H    5.130959   6.410958   7.029743   5.332152   4.907627
    23  O    5.354204   6.650117   7.273851   5.192230   5.485744
    24  H    5.913231   7.141683   7.841707   5.873038   6.061957
                    6          7          8          9         10
     6  C    0.000000
     7  O    1.216656   0.000000
     8  C    1.555784   2.372789   0.000000
     9  C    2.724940   3.790997   1.544049   0.000000
    10  C    4.022180   4.911356   2.542847   1.533851   0.000000
    11  C    5.245490   6.257267   3.901753   2.528538   1.528581
    12  H    5.446158   6.512482   4.223147   2.789329   2.155095
    13  H    5.387290   6.453038   4.199096   2.771587   2.183273
    14  O    6.384099   7.284525   4.920156   3.752825   2.379279
    15  H    7.155392   8.114848   5.745168   4.459914   3.221883
    16  H    2.135765   2.625146   1.096420   2.140766   2.741031
    17  O    2.369606   2.756201   1.434127   2.389671   2.844737
    18  H    2.945438   3.048364   1.969710   3.006695   3.121415
    19  H    3.014399   4.132824   2.192535   1.098484   2.138075
    20  O    3.203225   4.313526   2.442870   1.437313   2.398931
    21  H    3.594115   4.778258   3.093638   1.971582   3.000901
    22  H    4.247640   4.991976   2.766368   2.164323   1.095748
    23  O    4.446800   5.169843   2.974225   2.418343   1.432893
    24  H    4.822016   5.370979   3.319327   3.079058   1.968853
                   11         12         13         14         15
    11  C    0.000000
    12  H    1.096551   0.000000
    13  H    1.101459   1.792685   0.000000
    14  O    1.428977   2.084206   2.074876   0.000000
    15  H    1.949104   2.318852   2.305899   0.969146   0.000000
    16  H    4.167389   4.371133   4.710539   5.030294   5.896689
    17  O    4.239407   4.868892   4.411826   5.007530   5.883404
    18  H    4.599273   5.241370   4.937689   5.155722   6.089266
    19  H    2.701888   3.081786   2.484068   3.990361   4.574360
    20  O    2.903812   2.582311   3.276955   4.204681   4.753124
    21  H    3.143945   2.731313   3.240547   4.537907   4.937166
    22  H    2.137141   3.045155   2.509161   2.569316   3.463530
    23  O    2.375471   2.576561   3.348655   2.770992   3.627132
    24  H    2.981470   3.379807   3.913739   3.009473   3.929290
                   16         17         18         19         20
    16  H    0.000000
    17  O    2.065333   0.000000
    18  H    2.097900   0.967833   0.000000
    19  H    3.067427   2.680536   3.497264   0.000000
    20  O    2.655848   3.660606   4.186426   2.076230   0.000000
    21  H    3.505829   4.237089   4.892763   2.110335   0.966956
    22  H    3.077945   2.478369   2.668037   2.486646   3.351699
    23  O    2.599429   3.465575   3.399773   3.345706   2.751425
    24  H    2.852457   3.474435   3.163807   3.956913   3.639375
                   21         22         23         24
    21  H    0.000000
    22  H    3.901485   0.000000
    23  O    3.584016   2.106739   0.000000
    24  H    4.487896   2.157541   0.968721   0.000000
 Stoichiometry    C6H12O6
 Framework group  C1[X(C6H12O6)]
 Deg. of freedom    66
 Full point group                 C1      NOp   1
 Largest Abelian subgroup         C1      NOp   1
 Largest concise Abelian subgroup C1      NOp   1
                         Standard orientation:                         
 ---------------------------------------------------------------------
 Center     Atomic      Atomic             Coordinates (Angstroms)
 Number     Number       Type             X           Y           Z
 ---------------------------------------------------------------------
      1          6           0        2.709617   -0.994347   -0.206150
      2          8           0        4.124473   -0.895653   -0.231912
      3          1           0        4.470340   -1.778727   -0.432265
      4          1           0        2.392880   -1.696708    0.566096
      5          1           0        2.333106   -1.322781   -1.187259
      6          6           0        2.127657    0.376408    0.109351
      7          8           0        2.888727    1.300953    0.324391
      8          6           0        0.603958    0.689823    0.133395
      9          6           0       -0.479227   -0.373525   -0.149602
     10          6           0       -1.885668    0.237752   -0.118528
     11          6           0       -2.951799   -0.804012   -0.457130
     12          1           0       -2.948038   -1.587711    0.309829
     13          1           0       -2.765204   -1.258637   -1.442884
     14          8           0       -4.209713   -0.126295   -0.475253
     15          1           0       -4.888471   -0.788180   -0.676348
     16          1           0        0.396930    1.104960    1.126843
     17          8           0        0.428236    1.725657   -0.842766
     18          1           0        0.198203    2.546437   -0.384394
     19          1           0       -0.337892   -0.825731   -1.140662
     20          8           0       -0.429847   -1.403838    0.851339
     21          1           0       -0.301503   -2.255257    0.411319
     22          1           0       -1.954163    1.042839   -0.858667
     23          8           0       -2.169142    0.697977    1.208505
     24          1           0       -2.405290    1.636509    1.165937
 ---------------------------------------------------------------------
 Rotational constants (GHZ):      2.0044145      0.4161069      0.3784721
 Standard basis: 6-31G(d) (6D, 7F)
 There are   204 symmetry adapted basis functions of A   symmetry.
 Integral buffers will be    131072 words long.
 Raffenetti 2 integral format.
 Two-electron integral symmetry is turned on.
   204 basis functions,   384 primitive gaussians,   204 cartesian basis functions
    48 alpha electrons       48 beta electrons
       nuclear repulsion energy       772.9721426194 Hartrees.
 NAtoms=   24 NActive=   24 NUniq=   24 SFac= 1.00D+00 NAtFMM=   50 NAOKFM=F Big=F
 One-electron integrals computed using PRISM.
 NBasis=   204 RedAO= T  NBF=   204
 NBsUse=   204 1.00D-06 NBFU=   204
 Initial guess read from the read-write file.
 B after Tr=     0.000000    0.000000    0.000000
         Rot=    1.000000    0.000000    0.000000    0.000000 Ang=   0.00 deg.
 Initial guess orbital symmetries:
       Occupied  (A) (A) (A) (A) (A) (A) (A) (A) (A) (A) (A) (A)
                 (A) (A) (A) (A) (A) (A) (A) (A) (A) (A) (A) (A)
                 (A) (A) (A) (A) (A) (A) (A) (A) (A) (A) (A) (A)
                 (A) (A) (A) (A) (A) (A) (A) (A) (A) (A) (A) (A)
       Virtual   (A) (A) (A) (A) (A) (A) (A) (A) (A) (A) (A) (A)
                 (A) (A) (A) (A) (A) (A) (A) (A) (A) (A) (A) (A)
                 (A) (A) (A) (A) (A) (A) (A) (A) (A) (A) (A) (A)
                 (A) (A) (A) (A) (A) (A) (A) (A) (A) (A) (A) (A)
                 (A) (A) (A) (A) (A) (A) (A) (A) (A) (A) (A) (A)
                 (A) (A) (A) (A) (A) (A) (A) (A) (A) (A) (A) (A)
                 (A) (A) (A) (A) (A) (A) (A) (A) (A) (A) (A) (A)
                 (A) (A) (A) (A) (A) (A) (A) (A) (A) (A) (A) (A)
                 (A) (A) (A) (A) (A) (A) (A) (A) (A) (A) (A) (A)
                 (A) (A) (A) (A) (A) (A) (A) (A) (A) (A) (A) (A)
                 (A) (A) (A) (A) (A) (A) (A) (A) (A) (A) (A) (A)
                 (A) (A) (A) (A) (A) (A) (A) (A) (A) (A) (A) (A)
                 (A) (A) (A) (A) (A) (A) (A) (A) (A) (A) (A) (A)
 Harris functional with IExCor=  402 diagonalized for initial guess.
 ExpMin= 1.61D-01 ExpMax= 5.48D+03 ExpMxC= 8.25D+02 IAcc=1 IRadAn=         1 AccDes= 0.00D+00
 HarFok:  IExCor=  402 AccDes= 0.00D+00 IRadAn=         1 IDoV= 1
 ScaDFX=  1.000000  1.000000  1.000000  1.000000
 FoFCou: FMM=F IPFlag=           0 FMFlag=      100000 FMFlg1=           0
         NFxFlg=           0 DoJE=T BraDBF=F KetDBF=T FulRan=T
         Omega=  0.000000  0.000000  1.000000  0.000000  0.000000 ICntrl=     500 IOpCl=  0
         NMat0=    1 NMatS0=    1 NMatT0=    0 NMatD0=    1 NMtDS0=    0 NMtDT0=    0
         I1Cent=           4 NGrid=           0.
 Petite list used in FoFCou.
 Requested convergence on RMS density matrix=1.00D-08 within 128 cycles.
 Requested convergence on MAX density matrix=1.00D-06.
 Requested convergence on             energy=1.00D-06.
 No special actions if energy rises.
 Keep R1 ints in memory in canonical form, NReq=223281165.
 Integral accuracy reduced to 1.0D-05 until final iterations.
 Initial convergence to 1.0D-05 achieved.  Increase integral accuracy.
 SCF Done:  E(RB3LYP) =  -687.098367620     A.U. after   14 cycles
             Convg  =    0.9198D-08             -V/T =  2.0087
 Calling FoFJK, ICntrl=      2127 FMM=F ISym2X=0 I1Cent= 0 IOpClX= 0 NMat=1 NMatS=1 NMatT=0.
 ***** Axes restored to original set *****
 -------------------------------------------------------------------
 Center     Atomic                   Forces (Hartrees/Bohr)
 Number     Number              X              Y              Z
 -------------------------------------------------------------------
      1        6          -0.002005118    0.004082307    0.007876508
      2        8          -0.001345972    0.000176088   -0.002999078
      3        1           0.000026426   -0.000258090   -0.000909545
      4        1           0.005745693   -0.003687187   -0.007375106
      5        1           0.003159834   -0.001302668   -0.005199051
      6        6          -0.008896089   -0.000848414    0.009958220
      7        8           0.005241872   -0.001786120   -0.008826549
      8        6          -0.005336148    0.002964703   -0.006779764
      9        6           0.006902393   -0.003577040    0.004888541
     10        6           0.005143249   -0.004502363   -0.007903084
     11        6          -0.001303510    0.002075696   -0.008082043
     12        1           0.000047055   -0.000340043    0.002486586
     13        1           0.000276808    0.000126711    0.004399430
     14        8           0.000045998    0.001625633    0.001446803
     15        1          -0.000923728   -0.000688727   -0.000351842
     16        1           0.004493031   -0.003405636    0.001989898
     17        8           0.000042186    0.004207900   -0.003705009
     18        1           0.000102776    0.000270421    0.003995763
     19        1          -0.003863497    0.003236272    0.002224463
     20        8          -0.001750954   -0.000691158    0.008508318
     21        1          -0.000308326    0.000149641   -0.000346355
     22        1          -0.001204717   -0.001340394    0.001129992
     23        8          -0.007698053    0.003291787    0.005337589
     24        1           0.003408791    0.000220680   -0.001764684
 -------------------------------------------------------------------
 Cartesian Forces:  Max     0.009958220 RMS     0.004098490

 GradGradGradGradGradGradGradGradGradGradGradGradGradGradGradGradGradGrad
 Berny optimization.
 Using GEDIIS/GDIIS optimizer.
 Internal  Forces:  Max     0.019190992 RMS     0.004133622
 Search for a local minimum.
 Step number   2 out of a maximum of  125
 All quantities printed in internal units (Hartrees-Bohrs-Radians)
 Mixed Optimization -- RFO/linear search
 Update second derivatives using D2CorX and points    1    2
 DE= -1.08D-02 DEPred=-2.83D-02 R= 3.81D-01
 Trust test= 3.81D-01 RLast= 4.30D-01 DXMaxT set to 3.00D-01
 ITU=  0  0
 Use linear search instead of GDIIS.
     Eigenvalues ---    0.00235   0.00302   0.00383   0.00401   0.00490
     Eigenvalues ---    0.00562   0.01327   0.01374   0.01380   0.01395
     Eigenvalues ---    0.01513   0.03700   0.04381   0.04489   0.04943
     Eigenvalues ---    0.04977   0.05333   0.05449   0.05852   0.06539
     Eigenvalues ---    0.07051   0.07352   0.07467   0.09154   0.10949
     Eigenvalues ---    0.11203   0.13556   0.13854   0.15959   0.16000
     Eigenvalues ---    0.16000   0.16000   0.16006   0.16073   0.16907
     Eigenvalues ---    0.19325   0.19451   0.19591   0.21731   0.22074
     Eigenvalues ---    0.22182   0.24741   0.28362   0.28653   0.29254
     Eigenvalues ---    0.29515   0.30678   0.33929   0.34111   0.34174
     Eigenvalues ---    0.34210   0.34235   0.34349   0.34515   0.40508
     Eigenvalues ---    0.41496   0.41830   0.41994   0.42777   0.45521
     Eigenvalues ---    0.52718   0.52853   0.52882   0.52907   0.53013
     Eigenvalues ---    0.88702
 RFO step:  Lambda=-7.43867562D-03 EMin= 2.34833404D-03
 Quartic linear search produced a step of -0.28662.
 Iteration  1 RMS(Cart)=  0.15226196 RMS(Int)=  0.00617612
 Iteration  2 RMS(Cart)=  0.01164585 RMS(Int)=  0.00066045
 Iteration  3 RMS(Cart)=  0.00003910 RMS(Int)=  0.00065985
 Iteration  4 RMS(Cart)=  0.00000002 RMS(Int)=  0.00065985
 Variable       Old X    -DE/DX   Delta X   Delta X   Delta X     New X
                                 (Linear)    (Quad)   (Total)
    R1        2.68063  -0.00347  -0.00272   0.00007  -0.00264   2.67799
    R2        2.06145   0.00728   0.00114   0.01247   0.01361   2.07505
    R3        2.08059   0.00216  -0.00476   0.01417   0.00941   2.09000
    R4        2.87660   0.00001  -0.00302   0.00616   0.00314   2.87974
    R5        1.83175  -0.00046   0.00171  -0.00426  -0.00255   1.82921
    R6        2.29915  -0.00884   0.00829  -0.02510  -0.01681   2.28234
    R7        2.94001  -0.00749  -0.01525   0.01314  -0.00211   2.93790
    R8        2.91783  -0.00777  -0.00423  -0.01029  -0.01453   2.90330
    R9        2.07193  -0.00006  -0.00063   0.00117   0.00054   2.07247
   R10        2.71011   0.00347  -0.00644   0.01929   0.01285   2.72296
   R11        2.89856   0.00372   0.00341   0.00227   0.00567   2.90423
   R12        2.07583   0.00086  -0.00043   0.00265   0.00222   2.07805
   R13        2.71613   0.00073  -0.00689   0.01567   0.00877   2.72490
   R14        2.88860  -0.00136   0.00021  -0.00363  -0.00342   2.88518
   R15        2.07066  -0.00065  -0.00002  -0.00129  -0.00131   2.06935
   R16        2.70778  -0.00184  -0.00301   0.00315   0.00014   2.70792
   R17        2.07218   0.00065  -0.00081   0.00301   0.00220   2.07438
   R18        2.08146   0.00129  -0.00437   0.01162   0.00725   2.08871
   R19        2.70038  -0.00072  -0.00268   0.00441   0.00173   2.70210
   R20        1.83142  -0.00058   0.00174  -0.00448  -0.00274   1.82868
   R21        1.82894  -0.00171   0.00266  -0.00795  -0.00529   1.82365
   R22        1.82728  -0.00034   0.00269  -0.00619  -0.00350   1.82378
   R23        1.83062  -0.00221   0.00200  -0.00722  -0.00522   1.82540
    A1        1.92544   0.00431  -0.00873   0.04368   0.03496   1.96040
    A2        1.92374   0.00344  -0.00856   0.03905   0.03048   1.95422
    A3        1.89909  -0.00041   0.00799  -0.01167  -0.00364   1.89545
    A4        1.91715  -0.00336   0.00270  -0.03479  -0.03269   1.88446
    A5        1.89870  -0.00260   0.00336  -0.02145  -0.01829   1.88040
    A6        1.89925  -0.00151   0.00337  -0.01620  -0.01305   1.88620
    A7        1.87157  -0.00148   0.00133  -0.00874  -0.00742   1.86415
    A8        2.07347   0.01570   0.01276   0.01981   0.02940   2.10287
    A9        2.16401  -0.01919  -0.03468   0.01634  -0.02130   2.14272
   A10        2.04522   0.00351   0.02197  -0.03240  -0.01323   2.03199
   A11        2.14777  -0.01775  -0.03788  -0.00282  -0.04144   2.10632
   A12        1.84960   0.00319   0.00572  -0.02224  -0.01806   1.83154
   A13        1.82863   0.00575   0.01680  -0.01040   0.00662   1.83525
   A14        1.86958   0.00345   0.01699  -0.02848  -0.01303   1.85655
   A15        1.86158   0.00634   0.00803   0.01199   0.01978   1.88136
   A16        1.89666   0.00033  -0.00842   0.06519   0.05727   1.95393
   A17        1.94452   0.00027   0.02037  -0.03307  -0.01253   1.93199
   A18        1.93757  -0.00052   0.00452  -0.02212  -0.01656   1.92100
   A19        1.91976  -0.00711  -0.02399   0.00959  -0.01386   1.90590
   A20        1.87582  -0.00054   0.00045   0.01842   0.01903   1.89484
   A21        1.87871   0.00706   0.01127   0.01239   0.02282   1.90152
   A22        1.90581   0.00127  -0.01392   0.01675   0.00252   1.90833
   A23        1.94275  -0.00012   0.00268  -0.00200   0.00060   1.94335
   A24        1.91393  -0.00057   0.00534  -0.01625  -0.01090   1.90303
   A25        1.90515  -0.00109   0.00391  -0.00873  -0.00499   1.90017
   A26        1.88338  -0.00033   0.00027  -0.00218  -0.00181   1.88157
   A27        1.86091   0.00410  -0.02281   0.06268   0.03985   1.90076
   A28        1.95758  -0.00190   0.00934  -0.03174  -0.02231   1.93527
   A29        1.90684  -0.00137   0.00936  -0.02498  -0.01569   1.89115
   A30        1.94055  -0.00262   0.00345  -0.02202  -0.01864   1.92191
   A31        1.86874  -0.00104   0.00872  -0.01965  -0.01090   1.85784
   A32        1.90751   0.00016   0.00100  -0.00375  -0.00297   1.90454
   A33        1.92927   0.00233  -0.01410   0.04022   0.02617   1.95544
   A34        1.91084   0.00254  -0.00912   0.03046   0.02128   1.93213
   A35        1.87052   0.00141  -0.00070   0.00730   0.00659   1.87711
   A36        1.89577  -0.00063  -0.00426   0.00506   0.00080   1.89657
   A37        1.89530  -0.00047  -0.00317   0.00376   0.00059   1.89589
   A38        1.89516  -0.00125  -0.00340   0.00084  -0.00256   1.89260
    D1        1.05789   0.00047  -0.00306   0.00336   0.00035   1.05824
    D2       -1.06232  -0.00042   0.00433  -0.00757  -0.00329  -1.06560
    D3        3.13955  -0.00037   0.00058  -0.00392  -0.00334   3.13621
    D4       -0.03724  -0.00042   0.00220  -0.01692  -0.01560  -0.05284
    D5        3.07006   0.00056   0.01947   0.11612   0.13647  -3.07666
    D6        2.06104   0.00301  -0.00159   0.01636   0.01365   2.07470
    D7       -1.11484   0.00400   0.01568   0.14940   0.16572  -0.94912
    D8       -2.13379  -0.00345   0.00578  -0.04771  -0.04258  -2.17636
    D9        0.97351  -0.00247   0.02305   0.08533   0.10949   1.08300
   D10        0.01112   0.00187  -0.01064  -0.04618  -0.05576  -0.04465
   D11        2.16624  -0.00387  -0.01015  -0.11043  -0.11930   2.04693
   D12       -2.11286   0.00036  -0.00931  -0.05118  -0.05979  -2.17266
   D13        3.11893   0.00307   0.00650   0.08580   0.09133  -3.07292
   D14       -1.00914  -0.00267   0.00698   0.02156   0.02779  -0.98134
   D15        0.99495   0.00156   0.00783   0.08080   0.08730   1.08225
   D16       -3.09642  -0.00140  -0.01889  -0.13664  -0.15476   3.03201
   D17       -1.00640  -0.00225  -0.00004  -0.15025  -0.14998  -1.15639
   D18        1.10490  -0.00574  -0.02918  -0.13731  -0.16629   0.93862
   D19        1.04071   0.00468  -0.01294  -0.07482  -0.08789   0.95282
   D20        3.13073   0.00383   0.00591  -0.08842  -0.08312   3.04762
   D21       -1.04115   0.00035  -0.02323  -0.07549  -0.09942  -1.14057
   D22       -0.98771  -0.00048  -0.01621  -0.14208  -0.15790  -1.14561
   D23        1.10231  -0.00133   0.00264  -0.15569  -0.15313   0.94918
   D24       -3.06958  -0.00482  -0.02650  -0.14275  -0.16943   3.04418
   D25       -1.93865  -0.00474  -0.02003   0.06164   0.04141  -1.89724
   D26        2.04253   0.00921   0.01049   0.06424   0.07533   2.11785
   D27        0.03227   0.00178  -0.00925   0.05929   0.04965   0.08192
   D28        3.09964   0.00010   0.01659  -0.00250   0.01424   3.11388
   D29        1.01687   0.00095   0.01094   0.01201   0.02310   1.03997
   D30       -1.13409   0.00439  -0.00735   0.06779   0.06058  -1.07351
   D31        0.97343   0.00093  -0.00319   0.03307   0.03007   1.00350
   D32       -1.10934   0.00177  -0.00884   0.04757   0.03893  -1.07041
   D33        3.02288   0.00522  -0.02713   0.10336   0.07641   3.09930
   D34       -1.07742  -0.00394   0.00709  -0.00262   0.00412  -1.07330
   D35        3.12299  -0.00310   0.00144   0.01188   0.01299   3.13598
   D36        0.97203   0.00035  -0.01685   0.06766   0.05047   1.02250
   D37       -2.15018   0.00148   0.02150   0.00406   0.02614  -2.12404
   D38        2.01138   0.00100   0.00468   0.03098   0.03571   2.04709
   D39       -0.01992  -0.00288   0.00571  -0.00642  -0.00134  -0.02126
   D40        1.10675   0.00001  -0.00226   0.02247   0.02033   1.12708
   D41       -1.00005   0.00238  -0.01233   0.05760   0.04528  -0.95478
   D42       -3.08663   0.00143  -0.00870   0.04536   0.03667  -3.04996
   D43       -3.07556  -0.00096   0.00620  -0.00014   0.00615  -3.06941
   D44        1.10083   0.00141  -0.00388   0.03499   0.03110   1.13192
   D45       -0.98575   0.00046  -0.00025   0.02275   0.02249  -0.96326
   D46       -0.96936  -0.00112   0.00513  -0.00415   0.00099  -0.96837
   D47       -3.07616   0.00125  -0.00494   0.03098   0.02593  -3.05022
   D48        1.12045   0.00030  -0.00131   0.01874   0.01733   1.13778
   D49        2.16889   0.00033   0.00378   0.03006   0.03382   2.20271
   D50       -2.01384   0.00196  -0.00378   0.05906   0.05533  -1.95852
[...]
    21  H    2.690787   3.997411   4.634684   2.782840   0.977891
    22  H    2.907650   2.414327   3.270828   2.607696   3.343337
    23  O    2.714758   3.637133   4.540665   3.312588   2.623934
    24  H    3.653338   4.399761   5.325396   3.995038   3.397347
                   21         22         23         24
    21  H    0.000000
    22  H    3.315697   0.000000
    23  O    1.998320   2.084611   0.000000
    24  H    2.731349   2.441962   0.974338   0.000000
 Stoichiometry    C6H12O6
 Framework group  C1[X(C6H12O6)]
 Deg. of freedom    66
 Full point group                 C1      NOp   1
 Largest Abelian subgroup         C1      NOp   1
 Largest concise Abelian subgroup C1      NOp   1
                         Standard orientation:                         
 ---------------------------------------------------------------------
 Center     Atomic      Atomic             Coordinates (Angstroms)
 Number     Number       Type             X           Y           Z
 ---------------------------------------------------------------------
      1          6           0        2.679849   -0.949988    0.267963
      2          8           0        4.010791   -0.974096   -0.195539
      3          1           0        4.326981   -1.886089   -0.116191
      4          1           0        2.607514   -1.119376    1.357987
      5          1           0        2.033753   -1.705806   -0.203356
      6          6           0        2.063376    0.402504   -0.015654
      7          8           0        2.655322    1.288518   -0.605957
      8          6           0        0.631145    0.686467    0.471917
      9          6           0       -0.429026   -0.094969   -0.360193
     10          6           0       -1.848390    0.262909    0.109100
     11          6           0       -2.910771   -0.164162   -0.901379
     12          1           0       -2.724981   -1.202073   -1.209794
     13          1           0       -2.869864    0.482579   -1.789654
     14          8           0       -4.166582   -0.043138   -0.226220
     15          1           0       -4.837847   -0.523584   -0.732286
     16          1           0        0.530311    0.376941    1.522343
     17          8           0        0.383715    2.068042    0.356451
     18          1           0        1.140107    2.412436   -0.163542
     19          1           0       -0.304235    0.194566   -1.410986
     20          8           0       -0.252789   -1.502156   -0.275180
     21          1           0       -0.764245   -1.757572    0.518197
     22          1           0       -1.917857    1.342269    0.285799
     23          8           0       -2.045968   -0.457220    1.330324
     24          1           0       -3.012657   -0.510450    1.439933
 ---------------------------------------------------------------------
 Rotational constants (GHZ):      1.9599520      0.4367763      0.3949690

 **********************************************************************

            Population analysis using the SCF density.

 **********************************************************************

 Orbital symmetries:
       Occupied  (A) (A) (A) (A) (A) (A) (A) (A) (A) (A) (A) (A)
                 (A) (A) (A) (A) (A) (A) (A) (A) (A) (A) (A) (A)
                 (A) (A) (A) (A) (A) (A) (A) (A) (A) (A) (A) (A)
                 (A) (A) (A) (A) (A) (A) (A) (A) (A) (A) (A) (A)
       Virtual   (A) (A) (A) (A) (A) (A) (A) (A) (A) (A) (A) (A)
                 (A) (A) (A) (A) (A) (A) (A) (A) (A) (A) (A) (A)
                 (A) (A) (A) (A) (A) (A) (A) (A) (A) (A) (A) (A)
                 (A) (A) (A) (A) (A) (A) (A) (A) (A) (A) (A) (A)
                 (A) (A) (A) (A) (A) (A) (A) (A) (A) (A) (A) (A)
                 (A) (A) (A) (A) (A) (A) (A) (A) (A) (A) (A) (A)
                 (A) (A) (A) (A) (A) (A) (A) (A) (A) (A) (A) (A)
                 (A) (A) (A) (A) (A) (A) (A) (A) (A) (A) (A) (A)
                 (A) (A) (A) (A) (A) (A) (A) (A) (A) (A) (A) (A)
                 (A) (A) (A) (A) (A) (A) (A) (A) (A) (A) (A) (A)
                 (A) (A) (A) (A) (A) (A) (A) (A) (A) (A) (A) (A)
                 (A) (A) (A) (A) (A) (A) (A) (A) (A) (A) (A) (A)
                 (A) (A) (A) (A) (A) (A) (A) (A) (A) (A) (A) (A)
 The electronic state is 1-A.
 Alpha  occ. eigenvalues --  -19.17095 -19.15827 -19.15533 -19.15478 -19.15056
 Alpha  occ. eigenvalues --  -19.13992 -10.28145 -10.24830 -10.24579 -10.24336
 Alpha  occ. eigenvalues --  -10.24272 -10.24220  -1.06529  -1.05504  -1.03499
 Alpha  occ. eigenvalues --   -1.02475  -1.01138  -1.00799  -0.77976  -0.75365
 Alpha  occ. eigenvalues --   -0.70854  -0.64860  -0.60505  -0.55691  -0.54726
 Alpha  occ. eigenvalues --   -0.52900  -0.51470  -0.49305  -0.48730  -0.48551
 Alpha  occ. eigenvalues --   -0.47637  -0.46573  -0.44442  -0.43164  -0.41347
 Alpha  occ. eigenvalues --   -0.39663  -0.37262  -0.37060  -0.35819  -0.35353
 Alpha  occ. eigenvalues --   -0.34455  -0.33691  -0.30415  -0.29393  -0.28320
 Alpha  occ. eigenvalues --   -0.27414  -0.26550  -0.25465
 Alpha virt. eigenvalues --   -0.02371   0.04742   0.06493   0.08640   0.10510
 Alpha virt. eigenvalues --    0.11103   0.12446   0.14454   0.14943   0.15525
 Alpha virt. eigenvalues --    0.16469   0.17713   0.18268   0.18917   0.19933
 Alpha virt. eigenvalues --    0.21236   0.22040   0.23039   0.23848   0.27550
 Alpha virt. eigenvalues --    0.29202   0.29949   0.34039   0.38092   0.51808
 Alpha virt. eigenvalues --    0.52240   0.53736   0.53996   0.56450   0.57256
 Alpha virt. eigenvalues --    0.58674   0.59739   0.61259   0.64778   0.66729
 Alpha virt. eigenvalues --    0.66907   0.69931   0.70921   0.72206   0.74145
 Alpha virt. eigenvalues --    0.77856   0.78920   0.80333   0.80693   0.81377
 Alpha virt. eigenvalues --    0.82180   0.82453   0.83353   0.84809   0.86061
 Alpha virt. eigenvalues --    0.87372   0.88507   0.89845   0.91515   0.93454
 Alpha virt. eigenvalues --    0.94953   0.95559   0.97349   0.98470   1.00743
 Alpha virt. eigenvalues --    1.01988   1.03062   1.04404   1.05599   1.08412
 Alpha virt. eigenvalues --    1.09917   1.11610   1.13764   1.14792   1.18872
 Alpha virt. eigenvalues --    1.20648   1.24189   1.26270   1.29538   1.30782
 Alpha virt. eigenvalues --    1.33062   1.33304   1.37083   1.37639   1.43180
 Alpha virt. eigenvalues --    1.46476   1.51530   1.54034   1.55678   1.58399
 Alpha virt. eigenvalues --    1.60759   1.61479   1.65660   1.67931   1.69956
 Alpha virt. eigenvalues --    1.71729   1.72206   1.73362   1.74653   1.76846
 Alpha virt. eigenvalues --    1.78075   1.80077   1.83159   1.84335   1.85453
 Alpha virt. eigenvalues --    1.88334   1.90376   1.92017   1.94633   1.95180
 Alpha virt. eigenvalues --    1.97652   2.01529   2.02824   2.04480   2.06690
 Alpha virt. eigenvalues --    2.07737   2.13081   2.14983   2.15909   2.16817
 Alpha virt. eigenvalues --    2.19904   2.25543   2.26074   2.29101   2.33671
 Alpha virt. eigenvalues --    2.36181   2.36815   2.38829   2.39051   2.44059
 Alpha virt. eigenvalues --    2.45605   2.46777   2.51669   2.52937   2.53650
 Alpha virt. eigenvalues --    2.56829   2.59114   2.61857   2.65082   2.70305
 Alpha virt. eigenvalues --    2.74008   2.80099   2.84237   2.87006   2.91554
 Alpha virt. eigenvalues --    2.94214   2.97940   2.99822   3.04316   3.73583
 Alpha virt. eigenvalues --    3.76769   3.81233   3.82857   3.94956   4.05434
 Alpha virt. eigenvalues --    4.21056   4.26077   4.39461   4.48962   4.54707
 Alpha virt. eigenvalues --    4.67087
          Condensed to atoms (all electrons):
              1          2          3          4          5          6
     1  C    5.130769   0.232365  -0.022600   0.348003   0.344075   0.274851
     2  O    0.232365   8.224705   0.234164  -0.037856  -0.027734  -0.035692
     3  H   -0.022600   0.234164   0.390702  -0.002240  -0.005379   0.006242
     4  H    0.348003  -0.037856  -0.002240   0.627393  -0.045545  -0.043676
     5  H    0.344075  -0.027734  -0.005379  -0.045545   0.548369  -0.027543
     6  C    0.274851  -0.035692   0.006242  -0.043676  -0.027543   4.662397
     7  O   -0.078271   0.002993   0.000165   0.000545   0.000399   0.557999
     8  C   -0.112086   0.002016  -0.000182   0.007629   0.003613   0.288248
     9  C    0.003938  -0.000060   0.000003  -0.000538  -0.002288  -0.018584
    10  C   -0.000204   0.000000   0.000000  -0.000004   0.000305   0.003068
    11  C    0.000002   0.000000   0.000000   0.000000  -0.000001  -0.000040
    12  H   -0.000001   0.000000   0.000000   0.000000  -0.000004   0.000002
    13  H    0.000000   0.000000   0.000000   0.000000   0.000000   0.000000
    14  O    0.000000   0.000000   0.000000   0.000000   0.000000   0.000000
    15  H    0.000000   0.000000   0.000000   0.000000   0.000000   0.000000
    16  H    0.002308  -0.000003   0.000002   0.002211  -0.000040  -0.044338
    17  O    0.002330  -0.000007   0.000001  -0.000018   0.000016  -0.022944
    18  H    0.003340  -0.000032   0.000001  -0.000102  -0.000064  -0.010588
    19  H    0.000869  -0.000002   0.000001   0.000006  -0.000104  -0.006331
    20  O   -0.005042   0.000106   0.000004   0.000475   0.019846  -0.004843
    21  H    0.000682  -0.000004   0.000000  -0.000028  -0.000508  -0.000858
    22  H   -0.000021   0.000000   0.000000   0.000000  -0.000007   0.000217
    23  O   -0.000006   0.000000   0.000000  -0.000001   0.000003   0.000032
    24  H    0.000000   0.000000   0.000000   0.000000   0.000000   0.000003
              7          8          9         10         11         12
     1  C   -0.078271  -0.112086   0.003938  -0.000204   0.000002  -0.000001
     2  O    0.002993   0.002016  -0.000060   0.000000   0.000000   0.000000
     3  H    0.000165  -0.000182   0.000003   0.000000   0.000000   0.000000
     4  H    0.000545   0.007629  -0.000538  -0.000004   0.000000   0.000000
     5  H    0.000399   0.003613  -0.002288   0.000305  -0.000001  -0.000004
     6  C    0.557999   0.288248  -0.018584   0.003068  -0.000040   0.000002
     7  O    8.004545  -0.071506  -0.002805  -0.000047   0.000000   0.000000
     8  C   -0.071506   5.118599   0.279201  -0.028364   0.004246   0.000418
     9  C   -0.002805   0.279201   4.996678   0.333615  -0.028769  -0.006357
    10  C   -0.000047  -0.028364   0.333615   4.908006   0.345159  -0.030566
    11  C    0.000000   0.004246  -0.028769   0.345159   4.948100   0.347990
    12  H    0.000000   0.000418  -0.006357  -0.030566   0.347990   0.619356
    13  H    0.000000  -0.000257  -0.001784  -0.034431   0.349370  -0.046518
    14  O    0.000000  -0.000041   0.002130  -0.049203   0.233914  -0.037065
    15  H    0.000000   0.000003  -0.000210   0.005769  -0.021027  -0.005918
    16  H    0.001856   0.356043  -0.056183  -0.012995   0.000256  -0.000025
    17  O   -0.024051   0.257905  -0.048386  -0.007239  -0.000069  -0.000019
    18  H    0.053604  -0.055714   0.002797  -0.000286   0.000002   0.000002
    19  H    0.001810  -0.055447   0.358658  -0.048315  -0.004307  -0.001462
    20  O    0.000008  -0.038611   0.219250  -0.023108  -0.010641   0.011365
    21  H   -0.000002  -0.001251  -0.042652  -0.020484   0.000759   0.001736
    22  H    0.000004  -0.006984  -0.048079   0.364440  -0.048940   0.006207
    23  O    0.000000  -0.003655  -0.050263   0.222623  -0.038251  -0.001141
    24  H    0.000000  -0.000195   0.006872  -0.037953  -0.013925  -0.000183
             13         14         15         16         17         18
     1  C    0.000000   0.000000   0.000000   0.002308   0.002330   0.003340
     2  O    0.000000   0.000000   0.000000  -0.000003  -0.000007  -0.000032
     3  H    0.000000   0.000000   0.000000   0.000002   0.000001   0.000001
     4  H    0.000000   0.000000   0.000000   0.002211  -0.000018  -0.000102
     5  H    0.000000   0.000000   0.000000  -0.000040   0.000016  -0.000064
     6  C    0.000000   0.000000   0.000000  -0.044338  -0.022944  -0.010588
     7  O    0.000000   0.000000   0.000000   0.001856  -0.024051   0.053604
     8  C   -0.000257  -0.000041   0.000003   0.356043   0.257905  -0.055714
     9  C   -0.001784   0.002130  -0.000210  -0.056183  -0.048386   0.002797
    10  C   -0.034431  -0.049203   0.005769  -0.012995  -0.007239  -0.000286
    11  C    0.349370   0.233914  -0.021027   0.000256  -0.000069   0.000002
    12  H   -0.046518  -0.037065  -0.005918  -0.000025  -0.000019   0.000002
    13  H    0.626330  -0.037813  -0.000831  -0.000007   0.000028   0.000001
    14  O   -0.037813   8.259981   0.237083   0.000000   0.000001   0.000000
    15  H   -0.000831   0.237083   0.380122   0.000000   0.000000   0.000000
    16  H   -0.000007   0.000000   0.000000   0.611770  -0.039981   0.006198
    17  O    0.000028   0.000001   0.000000  -0.039981   8.280926   0.225177
    18  H    0.000001   0.000000   0.000000   0.006198   0.225177   0.363004
    19  H    0.003718   0.000051  -0.000005   0.007050   0.006841   0.001294
    20  O    0.000287   0.000016   0.000009   0.004274   0.001578  -0.000082
    21  H    0.000003  -0.000102  -0.000001   0.002798  -0.000065   0.000008
    22  H   -0.002430   0.000654  -0.000197   0.000686   0.014098  -0.000162
    23  O    0.003483  -0.010384   0.000414   0.007335   0.000200  -0.000013
    24  H    0.001275   0.037371  -0.001649  -0.000233  -0.000009   0.000000
             19         20         21         22         23         24
     1  C    0.000869  -0.005042   0.000682  -0.000021  -0.000006   0.000000
     2  O   -0.000002   0.000106  -0.000004   0.000000   0.000000   0.000000
     3  H    0.000001   0.000004   0.000000   0.000000   0.000000   0.000000
     4  H    0.000006   0.000475  -0.000028   0.000000  -0.000001   0.000000
     5  H   -0.000104   0.019846  -0.000508  -0.000007   0.000003   0.000000
     6  C   -0.006331  -0.004843  -0.000858   0.000217   0.000032   0.000003
     7  O    0.001810   0.000008  -0.000002   0.000004   0.000000   0.000000
     8  C   -0.055447  -0.038611  -0.001251  -0.006984  -0.003655  -0.000195
     9  C    0.358658   0.219250  -0.042652  -0.048079  -0.050263   0.006872
    10  C   -0.048315  -0.023108  -0.020484   0.364440   0.222623  -0.037953
    11  C   -0.004307  -0.010641   0.000759  -0.048940  -0.038251  -0.013925
    12  H   -0.001462   0.011365   0.001736   0.006207  -0.001141  -0.000183
    13  H    0.003718   0.000287   0.000003  -0.002430   0.003483   0.001275
    14  O    0.000051   0.000016  -0.000102   0.000654  -0.010384   0.037371
    15  H   -0.000005   0.000009  -0.000001  -0.000197   0.000414  -0.001649
    16  H    0.007050   0.004274   0.002798   0.000686   0.007335  -0.000233
    17  O    0.006841   0.001578  -0.000065   0.014098   0.000200  -0.000009
    18  H    0.001294  -0.000082   0.000008  -0.000162  -0.000013   0.000000
    19  H    0.613892  -0.035215   0.007193   0.002973   0.003172  -0.000173
    20  O   -0.035215   8.294193   0.228444   0.002688  -0.017959   0.000532
    21  H    0.007193   0.228444   0.364856   0.001560   0.046780  -0.001733
    22  H    0.002973   0.002688   0.001560   0.575325  -0.037450   0.000391
    23  O    0.003172  -0.017959   0.046780  -0.037450   8.308012   0.236679
    24  H   -0.000173   0.000532  -0.001733   0.000391   0.236679   0.352288
 Mulliken atomic charges:
              1
     1  C   -0.125301
     2  O   -0.594960
     3  H    0.399117
     4  H    0.143745
     5  H    0.192592
     6  C    0.422376
     7  O   -0.447248
     8  C    0.056370
     9  C    0.103815
    10  C    0.110213
    11  C   -0.063828
    12  H    0.142182
    13  H    0.139577
    14  O   -0.636594
    15  H    0.406438
    16  H    0.151017
    17  O   -0.646311
    18  H    0.411614
    19  H    0.143836
    20  O   -0.647574
    21  H    0.412869
    22  H    0.175026
    23  O   -0.669611
    24  H    0.420640
 Sum of Mulliken atomic charges =   0.00000
 Mulliken charges with hydrogens summed into heavy atoms:
              1
     1  C    0.211036
     2  O   -0.195842
     6  C    0.422376
     7  O   -0.447248
     8  C    0.207387
     9  C    0.247651
    10  C    0.285238
    11  C    0.217931
    14  O   -0.230156
    17  O   -0.234697
    20  O   -0.234705
    23  O   -0.248971
 Sum of Mulliken charges with hydrogens summed into heavy atoms =   0.00000
 Electronic spatial extent (au):  <R**2>=           2766.8830
 Charge=              0.0000 electrons
 Dipole moment (field-independent basis, Debye):
    X=             -3.3038    Y=             -3.7054    Z=             -0.2927  Tot=              4.9730
 Quadrupole moment (field-independent basis, Debye-Ang):
   XX=            -64.0479   YY=            -69.1977   ZZ=            -69.2891
   XY=             -3.7922   XZ=              9.6430   YZ=             -2.4535
 Traceless Quadrupole moment (field-independent basis, Debye-Ang):
   XX=              3.4636   YY=             -1.6861   ZZ=             -1.7775
   XY=             -3.7922   XZ=              9.6430   YZ=             -2.4535
 Octapole moment (field-independent basis, Debye-Ang**2):
  XXX=            -90.8405  YYY=            -15.1884  ZZZ=             -0.8235  XYY=             15.9669
  XXY=            -65.4772  XXZ=             -4.4771  XZZ=             -9.3606  YZZ=             -1.9666
  YYZ=              0.3810  XYZ=             -0.1237
 Hexadecapole moment (field-independent basis, Debye-Ang**3):
 XXXX=          -2268.2606 YYYY=           -459.1189 ZZZZ=           -233.2468 XXXY=            -34.7637
 XXXZ=            127.3309 YYYX=            -27.5872 YYYZ=            -19.4148 ZZZX=             -6.5123
 ZZZY=             -4.0931 XXYY=           -406.5436 XXZZ=           -426.5495 YYZZ=           -123.5212
 XXYZ=             20.1814 YYXZ=             -4.3237 ZZXY=              3.5080
 N-N= 7.826871967828D+02 E-N=-3.177040779064D+03  KE= 6.812460388571D+02

 Test job not archived.
 1\1\GINC-TERMINUS\FOpt\RB3LYP\6-31G(d)\C6H12O6\FRODOX\04-Jan-2018\0\\#
 B3LYP/6-31G* fopt test\\Sugars/S-S-R-Fructuose.xyz\\0,1\C,-0.314648702
 8,-0.4170100832,0.2834187892\O,-0.2924299425,0.098841467,1.5949924293\
 H,0.3761070886,-0.3983639725,2.088803275\H,-0.7198058718,-1.4446031189
 ,0.2389442326\H,0.6765782677,-0.4573383089,-0.19269533\C,-1.1946272615
 ,0.4482402126,-0.5921912169\O,-1.7399520571,1.4596303891,-0.1877281528
 \C,-1.4293334715,0.0329194561,-2.0557713763\C,-0.1577081014,0.24858723
 74,-2.9295377726\C,-0.4473412194,-0.1125015104,-4.3953596696\C,0.61892
 37374,0.4347437827,-5.3417808464\H,1.6155563397,0.1938634201,-4.947321
 4787\H,0.5253417965,1.52702739,-5.4262649622\O,0.3932601105,-0.2064130
 633,-6.6009644677\H,1.1756931877,-0.0804694292,-7.1572595622\H,-1.6914
 670183,-1.0342001919,-2.0994721432\O,-2.4856290713,0.8047601447,-2.577
 1204732\H,-2.641693612,1.498690617,-1.9024107681\H,0.1171402722,1.3082
 834669,-2.8583247429\O,0.9483681634,-0.5170280261,-2.472491532\H,0.845
 7927885,-1.3765808047,-2.9273745043\H,-1.4317163829,0.2736776949,-4.68
 33480139\O,-0.4354619017,-1.5427731523,-4.4518573039\H,-0.2755521378,-
 1.7583746171,-5.3884894091\\Version=EM64L-G09RevB.01\State=1-A\HF=-687
 .1380624\RMSD=6.226e-09\RMSF=1.516e-05\Dipole=1.5133948,-0.7640807,-0.
 9766307\Quadrupole=-2.2566407,-1.1719063,3.428547,0.2778726,-2.2494323
 ,-7.3077665\PG=C01 [X(C6H12O6)]\\@


            ARSENIC

 FOR SMELTER FUMES HAVE I BEEN NAMED,
    I AM AN EVIL POISONOUS SMOKE...
 BUT WHEN FROM POISON I AM FREED,
    THROUGH ART AND SLEIGHT OF HAND,
 THEN CAN I CURE BOTH MAN AND BEAST,
    FROM DIRE DISEASE OFTTIMES DIRECT THEM;
 BUT PREPARE ME CORRECTLY, AND TAKE GREAT CARE
    THAT YOU FAITHFULLY KEEP WATCHFUL GUARD OVER ME;
 FOR ELSE I AM POISON, AND POISON REMAIN,
    THAT PIERCES THE HEART OF MANY A ONE.

 ATTRIBUTED TO THE PROBABLY MYTHICAL 15TH
 CENTURY MONK, BASILIUS VALENTINUS
 Job cpu time:  0 days  0 hours 48 minutes 40.5 seconds.
 File lengths (MBytes):  RWF=     27 Int=      0 D2E=      0 Chk=      4 Scr=      1
 Normal termination of Gaussian 09 at Thu Jan  4 17:11:50 2018.
