 Entering Gaussian System, Link 0=g09
 Input=2,3-dimethyl-butane.inp
 Output=2,3-dimethyl-butane.log
 Initial command:
 /usr/local/g09/l1.exe /home/g09scr/Gau-16549.inp -scrdir=/home/g09scr/
 Entering Link 1 = /usr/local/g09/l1.exe PID=     16551.
  
 Copyright (c) 1988,1990,1992,1993,1995,1998,2003,2009,2010,
            Gaussian, Inc.  All Rights Reserved.
  
 This is part of the Gaussian(R) 09 program.  It is based on
 the Gaussian(R) 03 system (copyright 2003, Gaussian, Inc.),
 the Gaussian(R) 98 system (copyright 1998, Gaussian, Inc.),
 the Gaussian(R) 94 system (copyright 1995, Gaussian, Inc.),
 the Gaussian 92(TM) system (copyright 1992, Gaussian, Inc.),
 the Gaussian 90(TM) system (copyright 1990, Gaussian, Inc.),
 the Gaussian 88(TM) system (copyright 1988, Gaussian, Inc.),
 the Gaussian 86(TM) system (copyright 1986, Carnegie Mellon
 University), and the Gaussian 82(TM) system (copyright 1983,
 Carnegie Mellon University). Gaussian is a federally registered
 trademark of Gaussian, Inc.
  
 This software contains proprietary and confidential information,
 including trade secrets, belonging to Gaussian, Inc.
  
 This software is provided under written license and may be
 used, copied, transmitted, or stored only in accord with that
 written license.
  
 The following legend is applicable only to US Government
 contracts under FAR:
  
                    RESTRICTED RIGHTS LEGEND
  
 Use, reproduction and disclosure by the US Government is
 subject to restrictions as set forth in subparagraphs (a)
 and (c) of the Commercial Computer Software - Restricted
 Rights clause in FAR 52.227-19.
  
 Gaussian, Inc.
 340 Quinnipiac St., Bldg. 40, Wallingford CT 06492
  
  
 ---------------------------------------------------------------
 Warning -- This program may not be used in any manner that
 competes with the business of Gaussian, Inc. or will provide
 assistance to any competitor of Gaussian, Inc.  The licensee
 of this program is prohibited from giving any competitor of
 Gaussian, Inc. access to this program.  By using this program,
 the user acknowledges that Gaussian, Inc. is engaged in the
 business of creating and licensing software in the field of
 computational chemistry and represents and warrants to the
 licensee that it is not a competitor of Gaussian, Inc. and that
 it will not use this program in any manner prohibited above.
 ---------------------------------------------------------------
  

 Cite this work as:
 Gaussian 09, Revision B.01,
 M. J. Frisch, G. W. Trucks, H. B. Schlegel, G. E. Scuseria, 
 M. A. Robb, J. R. Cheeseman, G. Scalmani, V. Barone, B. Mennucci, 
 G. A. Petersson, H. Nakatsuji, M. Caricato, X. Li, H. P. Hratchian, 
 A. F. Izmaylov, J. Bloino, G. Zheng, J. L. Sonnenberg, M. Hada, 
 M. Ehara, K. Toyota, R. Fukuda, J. Hasegawa, M. Ishida, T. Nakajima, 
 Y. Honda, O. Kitao, H. Nakai, T. Vreven, J. A. Montgomery, Jr., 
 J. E. Peralta, F. Ogliaro, M. Bearpark, J. J. Heyd, E. Brothers, 
 K. N. Kudin, V. N. Staroverov, T. Keith, R. Kobayashi, J. Normand, 
 K. Raghavachari, A. Rendell, J. C. Burant, S. S. Iyengar, J. Tomasi, 
 M. Cossi, N. Rega, J. M. Millam, M. Klene, J. E. Knox, J. B. Cross, 
 V. Bakken, C. Adamo, J. Jaramillo, R. Gomperts, R. E. Stratmann, 
 O. Yazyev, A. J. Austin, R. Cammi, C. Pomelli, J. W. Ochterski, 
 R. L. Martin, K. Morokuma, V. G. Zakrzewski, G. A. Voth, 
 P. Salvador, J. J. Dannenberg, S. Dapprich, A. D. Daniels, 
 O. Farkas, J. B. Foresman, J. V. Ortiz, J. Cioslowski, 
 and D. J. Fox, Gaussian, Inc., Wallingford CT, 2010.
 
 ******************************************
 Gaussian 09:  EM64L-G09RevB.01 12-Aug-2010
                 5-Jan-2018 
 ******************************************
 %nproc=4
 Will use up to    4 processors via shared memory.
 %mem=60gb
 -----------------------
 #B3LYP/6-31G* fopt test
 -----------------------
 1/14=-1,18=20,19=15,26=3,38=1/1,3;
 2/9=110,12=2,14=103,17=6,18=5,40=1/2;
 3/5=1,6=6,7=1,11=2,16=1,25=1,30=1,71=1,74=-5/1,2,3;
 4//1;
 5/5=2,38=5/2;
 6/7=2,8=2,9=2,10=2,28=1/1;
 7//1,2,3,16;
 1/14=-1,18=20,19=15/3(2);
 2/9=110/2;
 99//99;
 2/9=110/2;
 3/5=1,6=6,7=1,11=2,16=1,25=1,30=1,71=1,74=-5/1,2,3;
 4/5=5,16=3/1;
 5/5=2,38=5/2;
 7//1,2,3,16;
 1/14=-1,18=20,19=15/3(-5);
 2/9=110/2;
 6/7=2,8=2,9=2,10=2,19=2,28=1/1;
 99/9=1/99;
 -----------------------------------
 IsomerC6H14/2,3-dimethyl-butane.xyz
 -----------------------------------
 Symbolic Z-matrix:
 Charge =  0 Multiplicity = 1
 6                     0.        0.7727    0. 
 6                     0.       -0.7727    0. 
 1                    -1.06108   1.0998    0. 
 1                     1.06108  -1.0998    0. 
 6                     0.67728   1.34847   1.25141 
 6                     0.67728   1.34847  -1.25141 
 6                    -0.67728  -1.34847   1.25141 
 6                    -0.67728  -1.34847  -1.25141 
 1                     1.71543   0.9769    1.33223 
 1                     1.71543   0.9769   -1.33223 
 1                    -1.71543  -0.9769    1.33223 
 1                    -1.71543  -0.9769   -1.33223 
 1                     0.71882   2.44973   1.19748 
 1                     0.14668   1.0819    2.17863 
 1                     0.71882   2.44973  -1.19748 
 1                     0.14668   1.0819   -2.17863 
 1                    -0.71882  -2.44973   1.19748 
 1                    -0.14668  -1.0819    2.17863 
 1                    -0.71882  -2.44973  -1.19748 
 1                    -0.14668  -1.0819   -2.17863 
 

 GradGradGradGradGradGradGradGradGradGradGradGradGradGradGradGradGradGrad
 Berny optimization.
 Initialization pass.
                           ----------------------------
                           !    Initial Parameters    !
                           ! (Angstroms and Degrees)  !
 --------------------------                            --------------------------
 ! Name  Definition              Value          Derivative Info.                !
 --------------------------------------------------------------------------------
 ! R1    R(1,2)                  1.5454         estimate D2E/DX2                !
 ! R2    R(1,3)                  1.1104         estimate D2E/DX2                !
 ! R3    R(1,5)                  1.535          estimate D2E/DX2                !
 ! R4    R(1,6)                  1.535          estimate D2E/DX2                !
 ! R5    R(2,4)                  1.1104         estimate D2E/DX2                !
 ! R6    R(2,7)                  1.535          estimate D2E/DX2                !
 ! R7    R(2,8)                  1.535          estimate D2E/DX2                !
 ! R8    R(5,9)                  1.1056         estimate D2E/DX2                !
 ! R9    R(5,13)                 1.1034         estimate D2E/DX2                !
 ! R10   R(5,14)                 1.1011         estimate D2E/DX2                !
 ! R11   R(6,10)                 1.1056         estimate D2E/DX2                !
 ! R12   R(6,15)                 1.1034         estimate D2E/DX2                !
 ! R13   R(6,16)                 1.1011         estimate D2E/DX2                !
 ! R14   R(7,11)                 1.1056         estimate D2E/DX2                !
 ! R15   R(7,17)                 1.1034         estimate D2E/DX2                !
 ! R16   R(7,18)                 1.1011         estimate D2E/DX2                !
 ! R17   R(8,12)                 1.1056         estimate D2E/DX2                !
 ! R18   R(8,19)                 1.1034         estimate D2E/DX2                !
 ! R19   R(8,20)                 1.1011         estimate D2E/DX2                !
 ! A1    A(2,1,3)              107.1333         estimate D2E/DX2                !
 ! A2    A(2,1,5)              112.0302         estimate D2E/DX2                !
 ! A3    A(2,1,6)              112.0302         estimate D2E/DX2                !
 ! A4    A(3,1,5)              108.128          estimate D2E/DX2                !
 ! A5    A(3,1,6)              108.128          estimate D2E/DX2                !
 ! A6    A(5,1,6)              109.2235         estimate D2E/DX2                !
 ! A7    A(1,2,4)              107.1333         estimate D2E/DX2                !
 ! A8    A(1,2,7)              112.0302         estimate D2E/DX2                !
 ! A9    A(1,2,8)              112.0302         estimate D2E/DX2                !
 ! A10   A(4,2,7)              108.128          estimate D2E/DX2                !
 ! A11   A(4,2,8)              108.128          estimate D2E/DX2                !
 ! A12   A(7,2,8)              109.2235         estimate D2E/DX2                !
 ! A13   A(1,5,9)              110.355          estimate D2E/DX2                !
 ! A14   A(1,5,13)             110.5577         estimate D2E/DX2                !
 ! A15   A(1,5,14)             112.5257         estimate D2E/DX2                !
 ! A16   A(9,5,13)             107.6776         estimate D2E/DX2                !
 ! A17   A(9,5,14)             108.0333         estimate D2E/DX2                !
 ! A18   A(13,5,14)            107.5143         estimate D2E/DX2                !
 ! A19   A(1,6,10)             110.355          estimate D2E/DX2                !
 ! A20   A(1,6,15)             110.5577         estimate D2E/DX2                !
 ! A21   A(1,6,16)             112.5257         estimate D2E/DX2                !
 ! A22   A(10,6,15)            107.6776         estimate D2E/DX2                !
 ! A23   A(10,6,16)            108.0333         estimate D2E/DX2                !
 ! A24   A(15,6,16)            107.5143         estimate D2E/DX2                !
 ! A25   A(2,7,11)             110.355          estimate D2E/DX2                !
 ! A26   A(2,7,17)             110.5577         estimate D2E/DX2                !
 ! A27   A(2,7,18)             112.5257         estimate D2E/DX2                !
 ! A28   A(11,7,17)            107.6776         estimate D2E/DX2                !
 ! A29   A(11,7,18)            108.0333         estimate D2E/DX2                !
 ! A30   A(17,7,18)            107.5143         estimate D2E/DX2                !
 ! A31   A(2,8,12)             110.355          estimate D2E/DX2                !
 ! A32   A(2,8,19)             110.5577         estimate D2E/DX2                !
 ! A33   A(2,8,20)             112.5257         estimate D2E/DX2                !
 ! A34   A(12,8,19)            107.6776         estimate D2E/DX2                !
 ! A35   A(12,8,20)            108.0333         estimate D2E/DX2                !
 ! A36   A(19,8,20)            107.5143         estimate D2E/DX2                !
 ! D1    D(3,1,2,4)            180.0            estimate D2E/DX2                !
 ! D2    D(3,1,2,7)            -61.5772         estimate D2E/DX2                !
 ! D3    D(3,1,2,8)             61.5772         estimate D2E/DX2                !
 ! D4    D(5,1,2,4)            -61.5772         estimate D2E/DX2                !
 ! D5    D(5,1,2,7)             56.8456         estimate D2E/DX2                !
 ! D6    D(5,1,2,8)            180.0            estimate D2E/DX2                !
 ! D7    D(6,1,2,4)             61.5772         estimate D2E/DX2                !
 ! D8    D(6,1,2,7)            180.0            estimate D2E/DX2                !
 ! D9    D(6,1,2,8)            -56.8456         estimate D2E/DX2                !
 ! D10   D(2,1,5,9)             57.5323         estimate D2E/DX2                !
 ! D11   D(2,1,5,13)           176.5481         estimate D2E/DX2                !
 ! D12   D(2,1,5,14)           -63.2201         estimate D2E/DX2                !
 ! D13   D(3,1,5,9)            175.3637         estimate D2E/DX2                !
 ! D14   D(3,1,5,13)           -65.6205         estimate D2E/DX2                !
 ! D15   D(3,1,5,14)            54.6113         estimate D2E/DX2                !
 ! D16   D(6,1,5,9)            -67.1922         estimate D2E/DX2                !
 ! D17   D(6,1,5,13)            51.8237         estimate D2E/DX2                !
 ! D18   D(6,1,5,14)           172.0554         estimate D2E/DX2                !
 ! D19   D(2,1,6,10)           -57.5323         estimate D2E/DX2                !
 ! D20   D(2,1,6,15)          -176.5481         estimate D2E/DX2                !
 ! D21   D(2,1,6,16)            63.2201         estimate D2E/DX2                !
 ! D22   D(3,1,6,10)          -175.3637         estimate D2E/DX2                !
 ! D23   D(3,1,6,15)            65.6205         estimate D2E/DX2                !
 ! D24   D(3,1,6,16)           -54.6113         estimate D2E/DX2                !
 ! D25   D(5,1,6,10)            67.1922         estimate D2E/DX2                !
 ! D26   D(5,1,6,15)           -51.8237         estimate D2E/DX2                !
 ! D27   D(5,1,6,16)          -172.0554         estimate D2E/DX2                !
 ! D28   D(1,2,7,11)            57.5323         estimate D2E/DX2                !
 ! D29   D(1,2,7,17)           176.5481         estimate D2E/DX2                !
 ! D30   D(1,2,7,18)           -63.2201         estimate D2E/DX2                !
 ! D31   D(4,2,7,11)           175.3637         estimate D2E/DX2                !
 ! D32   D(4,2,7,17)           -65.6205         estimate D2E/DX2                !
 ! D33   D(4,2,7,18)            54.6113         estimate D2E/DX2                !
 ! D34   D(8,2,7,11)           -67.1922         estimate D2E/DX2                !
 ! D35   D(8,2,7,17)            51.8237         estimate D2E/DX2                !
 ! D36   D(8,2,7,18)           172.0554         estimate D2E/DX2                !
 ! D37   D(1,2,8,12)           -57.5323         estimate D2E/DX2                !
 ! D38   D(1,2,8,19)          -176.5481         estimate D2E/DX2                !
 ! D39   D(1,2,8,20)            63.2201         estimate D2E/DX2                !
 ! D40   D(4,2,8,12)          -175.3637         estimate D2E/DX2                !
 ! D41   D(4,2,8,19)            65.6205         estimate D2E/DX2                !
 ! D42   D(4,2,8,20)           -54.6113         estimate D2E/DX2                !
 ! D43   D(7,2,8,12)            67.1922         estimate D2E/DX2                !
 ! D44   D(7,2,8,19)           -51.8237         estimate D2E/DX2                !
 ! D45   D(7,2,8,20)          -172.0554         estimate D2E/DX2                !
 --------------------------------------------------------------------------------
 Trust Radius=3.00D-01 FncErr=1.00D-07 GrdErr=1.00D-06
 Number of steps in this run=    110 maximum allowed number of steps=    120.
 GradGradGradGradGradGradGradGradGradGradGradGradGradGradGradGradGradGrad

                          Input orientation:                          
 ---------------------------------------------------------------------
 Center     Atomic      Atomic             Coordinates (Angstroms)
 Number     Number       Type             X           Y           Z
 ---------------------------------------------------------------------
      1          6           0        0.000000    0.772699    0.000000
      2          6           0        0.000000   -0.772699    0.000000
      3          1           0       -1.061081    1.099805    0.000000
      4          1           0        1.061081   -1.099805    0.000000
      5          6           0        0.677277    1.348471    1.251406
      6          6           0        0.677277    1.348471   -1.251406
      7          6           0       -0.677277   -1.348471    1.251406
      8          6           0       -0.677277   -1.348471   -1.251406
      9          1           0        1.715428    0.976896    1.332227
     10          1           0        1.715428    0.976896   -1.332227
     11          1           0       -1.715428   -0.976896    1.332227
     12          1           0       -1.715428   -0.976896   -1.332227
     13          1           0        0.718822    2.449726    1.197482
     14          1           0        0.146677    1.081899    2.178631
     15          1           0        0.718822    2.449726   -1.197482
     16          1           0        0.146677    1.081899   -2.178631
     17          1           0       -0.718822   -2.449726    1.197482
     18          1           0       -0.146677   -1.081899    2.178631
     19          1           0       -0.718822   -2.449726   -1.197482
     20          1           0       -0.146677   -1.081899   -2.178631
 ---------------------------------------------------------------------
                    Distance matrix (angstroms):
                    1          2          3          4          5
     1  C    0.000000
     2  C    1.545398   0.000000
     3  H    1.110356   2.152246   0.000000
     4  H    2.152246   1.110356   3.056445   0.000000
     5  C    1.535003   2.554229   2.156326   2.776216   0.000000
     6  C    1.535003   2.554229   2.156326   2.776216   2.502812
     7  C    2.554229   1.535003   2.776216   2.156326   3.017998
     8  C    2.554229   1.535003   2.776216   2.156326   3.920763
     9  H    2.181563   2.789015   3.082035   2.552584   1.105603
    10  H    2.181563   2.789015   3.082035   2.552584   2.809090
    11  H    2.789015   2.181563   2.552584   3.082035   3.337499
    12  H    2.789015   2.181563   2.552584   3.082035   4.219897
    13  H    2.182450   3.512078   2.534621   3.761685   1.103357
    14  H    2.205346   2.864870   2.491071   3.215960   1.101065
    15  H    2.182450   3.512078   2.534621   3.761685   2.685431
    16  H    2.205346   2.864870   2.491071   3.215960   3.481056
    17  H    3.512078   2.182450   3.761685   2.534621   4.047011
    18  H    2.864870   2.205346   3.215960   2.491071   2.728616
    19  H    3.512078   2.182450   3.761685   2.534621   4.729952
    20  H    2.864870   2.205346   3.215960   2.491071   4.283778
                    6          7          8          9         10
     6  C    0.000000
     7  C    3.920763   0.000000
     8  C    3.017998   2.502812   0.000000
     9  H    2.809090   3.337499   4.219897   0.000000
    10  H    1.105603   4.219897   3.337499   2.664454   0.000000
    11  H    4.219897   1.105603   2.809090   3.948174   4.763128
    12  H    3.337499   2.809090   1.105603   4.763128   3.948174
    13  H    2.685431   4.047011   4.729952   1.783426   3.092229
    14  H    3.481056   2.728616   4.283778   1.785611   3.846834
    15  H    1.103357   4.729952   4.047011   3.092229   1.783426
    16  H    1.101065   4.283778   2.728616   3.846834   1.785611
    17  H    4.729952   1.103357   2.685431   4.205409   4.905786
    18  H    4.283778   1.101065   3.481056   2.902149   4.475734
    19  H    4.047011   2.685431   1.103357   4.905786   4.205409
    20  H    2.728616   3.481056   1.101065   4.475734   2.902149
                   11         12         13         14         15
    11  H    0.000000
    12  H    2.664454   0.000000
    13  H    4.205409   4.905786   0.000000
    14  H    2.902149   4.475734   1.777907   0.000000
    15  H    4.905786   4.205409   2.394964   3.687335   0.000000
    16  H    4.475734   2.902149   3.687335   4.357262   1.777907
    17  H    1.783426   3.092229   5.106021   3.766181   5.639796
    18  H    1.785611   3.846834   3.766181   2.183593   4.961814
    19  H    3.092229   1.783426   5.639796   4.961814   5.106021
    20  H    3.846834   1.785611   4.961814   4.873788   3.766181
                   16         17         18         19         20
    16  H    0.000000
    17  H    4.961814   0.000000
    18  H    4.873788   1.777907   0.000000
    19  H    3.766181   2.394964   3.687335   0.000000
    20  H    2.183593   3.687335   4.357262   1.777907   0.000000
 Stoichiometry    C6H14
 Framework group  C2H[SGH(C2H2),X(C4H12)]
 Deg. of freedom    15
 Full point group                 C2H     NOp   4
 Largest Abelian subgroup         C2H     NOp   4
 Largest concise Abelian subgroup C2H     NOp   4
                         Standard orientation:                         
 ---------------------------------------------------------------------
 Center     Atomic      Atomic             Coordinates (Angstroms)
 Number     Number       Type             X           Y           Z
 ---------------------------------------------------------------------
      1          6           0       -0.235028    0.736088    0.000000
      2          6           0        0.235028   -0.736088    0.000000
      3          1           0       -1.345329    0.724951    0.000000
      4          1           0        1.345329   -0.724951    0.000000
      5          6           0        0.235028    1.490584    1.251406
      6          6           0        0.235028    1.490584   -1.251406
      7          6           0       -0.235028   -1.490584    1.251406
      8          6           0       -0.235028   -1.490584   -1.251406
      9          1           0        1.337011    1.452384    1.332227
     10          1           0        1.337011    1.452384   -1.332227
     11          1           0       -1.337011   -1.452384    1.332227
     12          1           0       -1.337011   -1.452384   -1.332227
     13          1           0       -0.060359    2.552297    1.197482
     14          1           0       -0.189349    1.075252    2.178631
     15          1           0       -0.060359    2.552297   -1.197482
     16          1           0       -0.189349    1.075252   -2.178631
     17          1           0        0.060359   -2.552297    1.197482
     18          1           0        0.189349   -1.075252    2.178631
     19          1           0        0.060359   -2.552297   -1.197482
     20          1           0        0.189349   -1.075252   -2.178631
 ---------------------------------------------------------------------
 Rotational constants (GHZ):      4.2028825      2.8857749      1.8762264
 Standard basis: 6-31G(d) (6D, 7F)
 There are    34 symmetry adapted basis functions of AG  symmetry.
 There are    25 symmetry adapted basis functions of BG  symmetry.
 There are    25 symmetry adapted basis functions of AU  symmetry.
 There are    34 symmetry adapted basis functions of BU  symmetry.
 Integral buffers will be    131072 words long.
 Raffenetti 2 integral format.
 Two-electron integral symmetry is turned on.
   118 basis functions,   224 primitive gaussians,   118 cartesian basis functions
    25 alpha electrons       25 beta electrons
       nuclear repulsion energy       261.9549972075 Hartrees.
 NAtoms=   20 NActive=   20 NUniq=    6 SFac= 4.00D+00 NAtFMM=   50 NAOKFM=F Big=F
 One-electron integrals computed using PRISM.
 NBasis=   118 RedAO= T  NBF=    34    25    25    34
 NBsUse=   118 1.00D-06 NBFU=    34    25    25    34
 Harris functional with IExCor=  402 diagonalized for initial guess.
 ExpMin= 1.61D-01 ExpMax= 3.05D+03 ExpMxC= 4.57D+02 IAcc=1 IRadAn=         1 AccDes= 0.00D+00
 HarFok:  IExCor=  402 AccDes= 0.00D+00 IRadAn=         1 IDoV= 1
 ScaDFX=  1.000000  1.000000  1.000000  1.000000
 FoFCou: FMM=F IPFlag=           0 FMFlag=      100000 FMFlg1=           0
         NFxFlg=           0 DoJE=T BraDBF=F KetDBF=T FulRan=T
         Omega=  0.000000  0.000000  1.000000  0.000000  0.000000 ICntrl=     500 IOpCl=  0
         NMat0=    1 NMatS0=    1 NMatT0=    0 NMatD0=    1 NMtDS0=    0 NMtDT0=    0
         I1Cent=           4 NGrid=           0.
 Petite list used in FoFCou.
 Initial guess orbital symmetries:
       Occupied  (AU) (BG) (BU) (AG) (AG) (BU) (AG) (BU) (AU) (BG)
                 (AG) (BU) (BU) (AG) (AU) (AG) (BU) (BG) (AU) (BG)
                 (AU) (BU) (BG) (AG) (AG)
       Virtual   (AG) (BU) (AG) (BU) (AU) (AU) (BU) (AG) (BG) (AU)
                 (BU) (AG) (BG) (BU) (AG) (BG) (AU) (BG) (BU) (AU)
                 (AG) (BU) (BG) (AG) (BU) (AG) (BU) (AU) (BG) (BU)
                 (AG) (AU) (BG) (BU) (AG) (AU) (AG) (BU) (AU) (BU)
                 (BG) (BG) (AG) (AU) (AG) (BU) (BG) (AU) (AG) (BU)
                 (BG) (AG) (BU) (AU) (BU) (BG) (BG) (AG) (AU) (AG)
                 (BG) (BU) (AU) (AU) (BG) (AG) (BU) (BU) (AG) (AU)
                 (AG) (BU) (BG) (AG) (BU) (AG) (AU) (BG) (AU) (BU)
                 (BG) (AG) (BU) (AG) (AU) (BG) (BU) (AG) (BU) (BG)
                 (AU) (AG) (BU)
 The electronic state of the initial guess is 1-AG.
 Requested convergence on RMS density matrix=1.00D-08 within 128 cycles.
 Requested convergence on MAX density matrix=1.00D-06.
 Requested convergence on             energy=1.00D-06.
 No special actions if energy rises.
 Keep R1 ints in memory in canonical form, NReq=25818267.
 Integral accuracy reduced to 1.0D-05 until final iterations.
 Initial convergence to 1.0D-05 achieved.  Increase integral accuracy.
 SCF Done:  E(RB3LYP) =  -237.081881933     A.U. after   12 cycles
             Convg  =    0.3781D-08             -V/T =  2.0108

 **********************************************************************

            Population analysis using the SCF density.

 **********************************************************************

 Orbital symmetries:
       Occupied  (AG) (BU) (BG) (AU) (BU) (AG) (AG) (BU) (AU) (BG)
                 (AG) (BU) (BU) (AG) (AG) (AU) (BU) (BG) (AU) (BG)
                 (AU) (BU) (AG) (BG) (AG)
       Virtual   (AG) (BU) (BU) (AU) (AG) (BU) (AG) (AU) (BG) (AG)
                 (AU) (BU) (BG) (BG) (BU) (AG) (AU) (BG) (BU) (AU)
                 (AG) (BG) (BU) (AG) (BU) (BU) (AG) (AU) (BG) (AG)
                 (AU) (BU) (BG) (BU) (AG) (AU) (BU) (AG) (AU) (BU)
                 (BG) (BG) (AG) (AU) (AG) (BU) (BG) (AG) (AU) (BU)
                 (BG) (AG) (BU) (BG) (BU) (AU) (AG) (BG) (AU) (AG)
                 (BU) (BG) (AU) (AU) (BG) (AG) (BU) (AG) (BU) (AU)
                 (AG) (BU) (BG) (AG) (BU) (AG) (AU) (BG) (AU) (BU)
                 (BG) (AG) (BU) (AG) (AU) (BU) (BG) (AG) (BU) (BG)
                 (AU) (AG) (BU)
 The electronic state is 1-AG.
 Alpha  occ. eigenvalues --  -10.18307 -10.18287 -10.16977 -10.16977 -10.16976
 Alpha  occ. eigenvalues --  -10.16976  -0.81337  -0.74123  -0.68538  -0.66068
 Alpha  occ. eigenvalues --   -0.60147  -0.54197  -0.45201  -0.44985  -0.42522
 Alpha  occ. eigenvalues --   -0.41603  -0.38660  -0.38295  -0.37238  -0.35682
 Alpha  occ. eigenvalues --   -0.35090  -0.33473  -0.31404  -0.30716  -0.30238
 Alpha virt. eigenvalues --    0.08255   0.11292   0.12798   0.13300   0.13990
 Alpha virt. eigenvalues --    0.15940   0.16166   0.17785   0.17943   0.18620
 Alpha virt. eigenvalues --    0.18626   0.20445   0.20459   0.23506   0.23982
 Alpha virt. eigenvalues --    0.25527   0.26873   0.27934   0.28175   0.49603
 Alpha virt. eigenvalues --    0.50738   0.51450   0.52029   0.55070   0.56584
 Alpha virt. eigenvalues --    0.62625   0.63318   0.63668   0.67612   0.73437
 Alpha virt. eigenvalues --    0.73644   0.74439   0.77642   0.80749   0.83768
 Alpha virt. eigenvalues --    0.84907   0.88211   0.88326   0.89765   0.91127
 Alpha virt. eigenvalues --    0.91150   0.91236   0.92311   0.93525   0.93973
 Alpha virt. eigenvalues --    0.95181   0.96033   0.98234   0.98379   1.01170
 Alpha virt. eigenvalues --    1.05426   1.06391   1.33571   1.39065   1.41142
 Alpha virt. eigenvalues --    1.41308   1.57041   1.58060   1.58125   1.69783
 Alpha virt. eigenvalues --    1.75101   1.79664   1.81433   1.85117   1.92072
 Alpha virt. eigenvalues --    1.92346   1.96359   2.00712   2.01313   2.03317
 Alpha virt. eigenvalues --    2.07118   2.12233   2.13071   2.18787   2.23841
 Alpha virt. eigenvalues --    2.24957   2.25228   2.27149   2.34844   2.40505
 Alpha virt. eigenvalues --    2.45762   2.48310   2.52059   2.59654   2.76240
 Alpha virt. eigenvalues --    2.77679   2.77926   4.13921   4.25297   4.28776
 Alpha virt. eigenvalues --    4.29081   4.47092   4.62862
          Condensed to atoms (all electrons):
              1          2          3          4          5          6
     1  C    4.864250   0.400767   0.369976  -0.046097   0.377598   0.377598
     2  C    0.400767   4.864250  -0.046097   0.369976  -0.045778  -0.045778
     3  H    0.369976  -0.046097   0.650620   0.007222  -0.046360  -0.046360
     4  H   -0.046097   0.369976   0.007222   0.650620  -0.006682  -0.006682
     5  C    0.377598  -0.045778  -0.046360  -0.006682   5.122255  -0.056598
     6  C    0.377598  -0.045778  -0.046360  -0.006682  -0.056598   5.122255
     7  C   -0.045778   0.377598  -0.006682  -0.046360  -0.005469   0.004894
     8  C   -0.045778   0.377598  -0.006682  -0.046360   0.004894  -0.005469
     9  H   -0.036067  -0.006372   0.005892   0.006356   0.370218  -0.004560
    10  H   -0.036067  -0.006372   0.005892   0.006356  -0.004560   0.370218
    11  H   -0.006372  -0.036067   0.006356   0.005892  -0.000844   0.000047
    12  H   -0.006372  -0.036067   0.006356   0.005892   0.000047  -0.000844
    13  H   -0.029630   0.004733  -0.002661  -0.000071   0.367459  -0.005684
    14  H   -0.027494  -0.005237  -0.003743  -0.000082   0.369672   0.005178
    15  H   -0.029630   0.004733  -0.002661  -0.000071  -0.005684   0.367459
    16  H   -0.027494  -0.005237  -0.003743  -0.000082   0.005178   0.369672
    17  H    0.004733  -0.029630  -0.000071  -0.002661   0.000187  -0.000148
    18  H   -0.005237  -0.027494  -0.000082  -0.003743   0.001991  -0.000009
    19  H    0.004733  -0.029630  -0.000071  -0.002661  -0.000148   0.000187
    20  H   -0.005237  -0.027494  -0.000082  -0.003743  -0.000009   0.001991
              7          8          9         10         11         12
     1  C   -0.045778  -0.045778  -0.036067  -0.036067  -0.006372  -0.006372
     2  C    0.377598   0.377598  -0.006372  -0.006372  -0.036067  -0.036067
     3  H   -0.006682  -0.006682   0.005892   0.005892   0.006356   0.006356
     4  H   -0.046360  -0.046360   0.006356   0.006356   0.005892   0.005892
     5  C   -0.005469   0.004894   0.370218  -0.004560  -0.000844   0.000047
     6  C    0.004894  -0.005469  -0.004560   0.370218   0.000047  -0.000844
     7  C    5.122255  -0.056598  -0.000844   0.000047   0.370218  -0.004560
     8  C   -0.056598   5.122255   0.000047  -0.000844  -0.004560   0.370218
     9  H   -0.000844   0.000047   0.587216   0.004437   0.000138   0.000012
    10  H    0.000047  -0.000844   0.004437   0.587216   0.000012   0.000138
    11  H    0.370218  -0.004560   0.000138   0.000012   0.587216   0.004437
    12  H   -0.004560   0.370218   0.000012   0.000138   0.004437   0.587216
    13  H    0.000187  -0.000148  -0.031331  -0.000195  -0.000043   0.000000
    14  H    0.001991  -0.000009  -0.031391  -0.000058   0.000686  -0.000004
    15  H   -0.000148   0.000187  -0.000195  -0.031331   0.000000  -0.000043
    16  H   -0.000009   0.001991  -0.000058  -0.031391  -0.000004   0.000686
    17  H    0.367459  -0.005684  -0.000043   0.000000  -0.031331  -0.000195
    18  H    0.369672   0.005178   0.000686  -0.000004  -0.031391  -0.000058
    19  H   -0.005684   0.367459   0.000000  -0.000043  -0.000195  -0.031331
    20  H    0.005178   0.369672  -0.000004   0.000686  -0.000058  -0.031391
             13         14         15         16         17         18
     1  C   -0.029630  -0.027494  -0.029630  -0.027494   0.004733  -0.005237
     2  C    0.004733  -0.005237   0.004733  -0.005237  -0.029630  -0.027494
     3  H   -0.002661  -0.003743  -0.002661  -0.003743  -0.000071  -0.000082
     4  H   -0.000071  -0.000082  -0.000071  -0.000082  -0.002661  -0.003743
     5  C    0.367459   0.369672  -0.005684   0.005178   0.000187   0.001991
     6  C   -0.005684   0.005178   0.367459   0.369672  -0.000148  -0.000009
     7  C    0.000187   0.001991  -0.000148  -0.000009   0.367459   0.369672
     8  C   -0.000148  -0.000009   0.000187   0.001991  -0.005684   0.005178
     9  H   -0.031331  -0.031391  -0.000195  -0.000058  -0.000043   0.000686
    10  H   -0.000195  -0.000058  -0.031331  -0.031391   0.000000  -0.000004
    11  H   -0.000043   0.000686   0.000000  -0.000004  -0.031331  -0.031391
    12  H    0.000000  -0.000004  -0.000043   0.000686  -0.000195  -0.000058
    13  H    0.585136  -0.030037   0.005346   0.000019  -0.000001  -0.000055
    14  H   -0.030037   0.574421   0.000019  -0.000186  -0.000055   0.002094
    15  H    0.005346   0.000019   0.585136  -0.030037   0.000002  -0.000001
    16  H    0.000019  -0.000186  -0.030037   0.574421  -0.000001  -0.000002
    17  H   -0.000001  -0.000055   0.000002  -0.000001   0.585136  -0.030037
    18  H   -0.000055   0.002094  -0.000001  -0.000002  -0.030037   0.574421
    19  H    0.000002  -0.000001  -0.000001  -0.000055   0.005346   0.000019
    20  H   -0.000001  -0.000002  -0.000055   0.002094   0.000019  -0.000186
             19         20
     1  C    0.004733  -0.005237
     2  C   -0.029630  -0.027494
     3  H   -0.000071  -0.000082
     4  H   -0.002661  -0.003743
     5  C   -0.000148  -0.000009
     6  C    0.000187   0.001991
     7  C   -0.005684   0.005178
     8  C    0.367459   0.369672
     9  H    0.000000  -0.000004
    10  H   -0.000043   0.000686
    11  H   -0.000195  -0.000058
    12  H   -0.031331  -0.031391
    13  H    0.000002  -0.000001
    14  H   -0.000001  -0.000002
    15  H   -0.000001  -0.000055
    16  H   -0.000055   0.002094
    17  H    0.005346   0.000019
    18  H    0.000019  -0.000186
    19  H    0.585136  -0.030037
    20  H   -0.030037   0.574421
 Mulliken atomic charges:
              1
     1  C   -0.052405
     2  C   -0.052405
     3  H    0.112980
     4  H    0.112980
     5  C   -0.447366
     6  C   -0.447366
     7  C   -0.447366
     8  C   -0.447366
     9  H    0.135863
    10  H    0.135863
    11  H    0.135863
    12  H    0.135863
    13  H    0.136975
    14  H    0.144240
    15  H    0.136975
    16  H    0.144240
    17  H    0.136975
    18  H    0.144240
    19  H    0.136975
    20  H    0.144240
 Sum of Mulliken atomic charges =   0.00000
 Mulliken charges with hydrogens summed into heavy atoms:
              1
     1  C    0.060575
     2  C    0.060575
     5  C   -0.030288
     6  C   -0.030288
     7  C   -0.030288
     8  C   -0.030288
 Sum of Mulliken charges with hydrogens summed into heavy atoms =   0.00000
 Electronic spatial extent (au):  <R**2>=            744.3200
 Charge=              0.0000 electrons
 Dipole moment (field-independent basis, Debye):
    X=              0.0000    Y=              0.0000    Z=              0.0000  Tot=              0.0000
 Quadrupole moment (field-independent basis, Debye-Ang):
   XX=            -41.3128   YY=            -41.9457   ZZ=            -42.1644
   XY=             -0.3580   XZ=              0.0000   YZ=              0.0000
 Traceless Quadrupole moment (field-independent basis, Debye-Ang):
   XX=              0.4948   YY=             -0.1381   ZZ=             -0.3567
   XY=             -0.3580   XZ=              0.0000   YZ=              0.0000
 Octapole moment (field-independent basis, Debye-Ang**2):
  XXX=              0.0000  YYY=              0.0000  ZZZ=              0.0000  XYY=              0.0000
  XXY=              0.0000  XXZ=              0.0000  XZZ=              0.0000  YZZ=              0.0000
  YYZ=              0.0000  XYZ=              0.0000
 Hexadecapole moment (field-independent basis, Debye-Ang**3):
 XXXX=           -100.3727 YYYY=           -531.0938 ZZZZ=           -387.1807 XXXY=            -24.9641
 XXXZ=              0.0000 YYYX=            -33.7382 YYYZ=              0.0000 ZZZX=              0.0000
 ZZZY=              0.0000 XXYY=           -109.6110 XXZZ=            -82.9010 YYZZ=           -162.9484
 XXYZ=              0.0000 YYXZ=              0.0000 ZZXY=            -10.9877
 N-N= 2.619549972075D+02 E-N=-1.070758302674D+03  KE= 2.345470967874D+02
 Symmetry AG   KE= 7.738188109259D+01
 Symmetry BG   KE= 4.153168445182D+01
 Symmetry AU   KE= 4.074741160526D+01
 Symmetry BU   KE= 7.488611963777D+01
 Calling FoFJK, ICntrl=      2127 FMM=F ISym2X=1 I1Cent= 0 IOpClX= 0 NMat=1 NMatS=1 NMatT=0.
 ***** Axes restored to original set *****
 -------------------------------------------------------------------
 Center     Atomic                   Forces (Hartrees/Bohr)
 Number     Number              X              Y              Z
 -------------------------------------------------------------------
      1        6          -0.003807489    0.002587063    0.000000000
      2        6           0.003807489   -0.002587063    0.000000000
      3        1           0.004685799   -0.000906713    0.000000000
      4        1          -0.004685799    0.000906713    0.000000000
      5        6           0.002011537    0.002732082    0.003907955
      6        6           0.002011537    0.002732082   -0.003907955
      7        6          -0.002011537   -0.002732082    0.003907955
      8        6          -0.002011537   -0.002732082   -0.003907955
      9        1          -0.004114858    0.002160714    0.000506383
     10        1          -0.004114858    0.002160714   -0.000506383
     11        1           0.004114858   -0.002160714    0.000506383
     12        1           0.004114858   -0.002160714   -0.000506383
     13        1           0.000187587   -0.004468366    0.000791417
     14        1           0.002573660    0.001313972   -0.003615184
     15        1           0.000187587   -0.004468366   -0.000791417
     16        1           0.002573660    0.001313972    0.003615184
     17        1          -0.000187587    0.004468366    0.000791417
     18        1          -0.002573660   -0.001313972   -0.003615184
     19        1          -0.000187587    0.004468366   -0.000791417
     20        1          -0.002573660   -0.001313972    0.003615184
 -------------------------------------------------------------------
 Cartesian Forces:  Max     0.004685799 RMS     0.002740703

 GradGradGradGradGradGradGradGradGradGradGradGradGradGradGradGradGradGrad
 Berny optimization.
 Internal  Forces:  Max     0.005165561 RMS     0.001908582
 Search for a local minimum.
 Step number   1 out of a maximum of  110
 All quantities printed in internal units (Hartrees-Bohrs-Radians)
 Mixed Optimization -- RFO/linear search
 Second derivative matrix not updated -- first step.
 ITU=  0
     Eigenvalues ---    0.00230   0.00303   0.00303   0.00303   0.00303
     Eigenvalues ---    0.03429   0.03429   0.04638   0.04638   0.04893
     Eigenvalues ---    0.04893   0.05331   0.05331   0.05331   0.05331
     Eigenvalues ---    0.05573   0.05573   0.05573   0.05573   0.16000
     Eigenvalues ---    0.16000   0.16000   0.16000   0.16000   0.16000
     Eigenvalues ---    0.16000   0.16000   0.16000   0.16000   0.16000
     Eigenvalues ---    0.16000   0.16565   0.16565   0.17090   0.17090
     Eigenvalues ---    0.28046   0.28966   0.28966   0.28966   0.28966
     Eigenvalues ---    0.32562   0.32562   0.33070   0.33070   0.33070
     Eigenvalues ---    0.33070   0.33314   0.33314   0.33314   0.33314
     Eigenvalues ---    0.33565   0.33565   0.33565   0.33565
 RFO step:  Lambda=-1.30068924D-03 EMin= 2.30000000D-03
 Linear search not attempted -- first point.
 Iteration  1 RMS(Cart)=  0.01512182 RMS(Int)=  0.00006324
 Iteration  2 RMS(Cart)=  0.00010364 RMS(Int)=  0.00002675
 Iteration  3 RMS(Cart)=  0.00000001 RMS(Int)=  0.00002675
 ClnCor:  largest displacement from symmetrization is 6.90D-09 for atom    16.
 Variable       Old X    -DE/DX   Delta X   Delta X   Delta X     New X
                                 (Linear)    (Quad)   (Total)
    R1        2.92038   0.00517   0.00000   0.01833   0.01833   2.93871
    R2        2.09827  -0.00474   0.00000  -0.01451  -0.01451   2.08376
    R3        2.90074   0.00224   0.00000   0.00769   0.00769   2.90842
    R4        2.90074   0.00224   0.00000   0.00769   0.00769   2.90842
    R5        2.09827  -0.00474   0.00000  -0.01451  -0.01451   2.08376
    R6        2.90074   0.00224   0.00000   0.00769   0.00769   2.90842
    R7        2.90074   0.00224   0.00000   0.00769   0.00769   2.90842
    R8        2.08929  -0.00456   0.00000  -0.01372  -0.01372   2.07557
    R9        2.08504  -0.00449   0.00000  -0.01343  -0.01343   2.07162
   R10        2.08071  -0.00460   0.00000  -0.01366  -0.01366   2.06705
   R11        2.08929  -0.00456   0.00000  -0.01372  -0.01372   2.07557
   R12        2.08504  -0.00449   0.00000  -0.01343  -0.01343   2.07162
   R13        2.08071  -0.00460   0.00000  -0.01366  -0.01366   2.06705
   R14        2.08929  -0.00456   0.00000  -0.01372  -0.01372   2.07557
   R15        2.08504  -0.00449   0.00000  -0.01343  -0.01343   2.07162
   R16        2.08071  -0.00460   0.00000  -0.01366  -0.01366   2.06705
   R17        2.08929  -0.00456   0.00000  -0.01372  -0.01372   2.07557
   R18        2.08504  -0.00449   0.00000  -0.01343  -0.01343   2.07162
   R19        2.08071  -0.00460   0.00000  -0.01366  -0.01366   2.06705
    A1        1.86983  -0.00032   0.00000  -0.00342  -0.00337   1.86646
    A2        1.95530   0.00067   0.00000   0.00942   0.00937   1.96467
    A3        1.95530   0.00067   0.00000   0.00942   0.00937   1.96467
    A4        1.88719  -0.00022   0.00000  -0.00861  -0.00861   1.87858
    A5        1.88719  -0.00022   0.00000  -0.00861  -0.00861   1.87858
    A6        1.90631  -0.00063   0.00000   0.00036   0.00023   1.90654
    A7        1.86983  -0.00032   0.00000  -0.00342  -0.00337   1.86646
    A8        1.95530   0.00067   0.00000   0.00942   0.00937   1.96467
    A9        1.95530   0.00067   0.00000   0.00942   0.00937   1.96467
   A10        1.88719  -0.00022   0.00000  -0.00861  -0.00861   1.87858
   A11        1.88719  -0.00022   0.00000  -0.00861  -0.00861   1.87858
   A12        1.90631  -0.00063   0.00000   0.00036   0.00023   1.90654
   A13        1.92606   0.00129   0.00000   0.00839   0.00837   1.93443
   A14        1.92960   0.00061   0.00000   0.00358   0.00357   1.93316
   A15        1.96394   0.00027   0.00000   0.00152   0.00151   1.96546
   A16        1.87933  -0.00093   0.00000  -0.00546  -0.00548   1.87385
   A17        1.88554  -0.00081   0.00000  -0.00461  -0.00462   1.88092
   A18        1.87648  -0.00056   0.00000  -0.00421  -0.00421   1.87227
   A19        1.92606   0.00129   0.00000   0.00839   0.00837   1.93443
   A20        1.92960   0.00061   0.00000   0.00358   0.00357   1.93316
   A21        1.96394   0.00027   0.00000   0.00152   0.00151   1.96546
   A22        1.87933  -0.00093   0.00000  -0.00546  -0.00548   1.87385
   A23        1.88554  -0.00081   0.00000  -0.00461  -0.00462   1.88092
   A24        1.87648  -0.00056   0.00000  -0.00421  -0.00421   1.87227
   A25        1.92606   0.00129   0.00000   0.00839   0.00837   1.93443
   A26        1.92960   0.00061   0.00000   0.00358   0.00357   1.93316
   A27        1.96394   0.00027   0.00000   0.00152   0.00151   1.96546
   A28        1.87933  -0.00093   0.00000  -0.00546  -0.00548   1.87385
   A29        1.88554  -0.00081   0.00000  -0.00461  -0.00462   1.88092
   A30        1.87648  -0.00056   0.00000  -0.00421  -0.00421   1.87227
   A31        1.92606   0.00129   0.00000   0.00839   0.00837   1.93443
   A32        1.92960   0.00061   0.00000   0.00358   0.00357   1.93316
   A33        1.96394   0.00027   0.00000   0.00152   0.00151   1.96546
   A34        1.87933  -0.00093   0.00000  -0.00546  -0.00548   1.87385
   A35        1.88554  -0.00081   0.00000  -0.00461  -0.00462   1.88092
   A36        1.87648  -0.00056   0.00000  -0.00421  -0.00421   1.87227
    D1        3.14159   0.00000   0.00000   0.00000   0.00000   3.14159
    D2       -1.07472  -0.00008   0.00000  -0.00728  -0.00731  -1.08204
    D3        1.07472   0.00008   0.00000   0.00728   0.00731   1.08204
    D4       -1.07472  -0.00008   0.00000  -0.00728  -0.00731  -1.08204
    D5        0.99214  -0.00017   0.00000  -0.01456  -0.01463   0.97752
    D6        3.14159   0.00000   0.00000   0.00000   0.00000   3.14159
    D7        1.07472   0.00008   0.00000   0.00728   0.00731   1.08204
    D8       -3.14159   0.00000   0.00000   0.00000   0.00000   3.14159
    D9       -0.99214   0.00017   0.00000   0.01456   0.01463  -0.97752
   D10        1.00413   0.00036   0.00000   0.01269   0.01269   1.01682
   D11        3.08135   0.00041   0.00000   0.01350   0.01351   3.09485
   D12       -1.10340   0.00030   0.00000   0.01165   0.01165  -1.09175
   D13        3.06067   0.00022   0.00000   0.00856   0.00855   3.06922
   D14       -1.14529   0.00027   0.00000   0.00937   0.00937  -1.13593
   D15        0.95315   0.00016   0.00000   0.00752   0.00751   0.96065
   D16       -1.17272  -0.00051   0.00000  -0.00636  -0.00635  -1.17908
   D17        0.90449  -0.00046   0.00000  -0.00555  -0.00554   0.89895
   D18        3.00293  -0.00056   0.00000  -0.00740  -0.00740   2.99554
   D19       -1.00413  -0.00036   0.00000  -0.01269  -0.01269  -1.01682
   D20       -3.08135  -0.00041   0.00000  -0.01350  -0.01351  -3.09485
   D21        1.10340  -0.00030   0.00000  -0.01165  -0.01165   1.09175
   D22       -3.06067  -0.00022   0.00000  -0.00856  -0.00855  -3.06922
   D23        1.14529  -0.00027   0.00000  -0.00937  -0.00937   1.13593
   D24       -0.95315  -0.00016   0.00000  -0.00752  -0.00751  -0.96065
   D25        1.17272   0.00051   0.00000   0.00636   0.00635   1.17908
   D26       -0.90449   0.00046   0.00000   0.00555   0.00554  -0.89895
   D27       -3.00293   0.00056   0.00000   0.00740   0.00740  -2.99554
   D28        1.00413   0.00036   0.00000   0.01269   0.01269   1.01682
   D29        3.08135   0.00041   0.00000   0.01350   0.01351   3.09485
   D30       -1.10340   0.00030   0.00000   0.01165   0.01165  -1.09175
   D31        3.06067   0.00022   0.00000   0.00856   0.00855   3.06922
   D32       -1.14529   0.00027   0.00000   0.00937   0.00937  -1.13593
   D33        0.95315   0.00016   0.00000   0.00752   0.00751   0.96065
   D34       -1.17272  -0.00051   0.00000  -0.00636  -0.00635  -1.17908
   D35        0.90449  -0.00046   0.00000  -0.00555  -0.00554   0.89895
   D36        3.00293  -0.00056   0.00000  -0.00740  -0.00740   2.99554
   D37       -1.00413  -0.00036   0.00000  -0.01269  -0.01269  -1.01682
   D38       -3.08135  -0.00041   0.00000  -0.01350  -0.01351  -3.09485
   D39        1.10340  -0.00030   0.00000  -0.01165  -0.01165   1.09175
   D40       -3.06067  -0.00022   0.00000  -0.00856  -0.00855  -3.06922
   D41        1.14529  -0.00027   0.00000  -0.00937  -0.00937   1.13593
   D42       -0.95315  -0.00016   0.00000  -0.00752  -0.00751  -0.96065
   D43        1.17272   0.00051   0.00000   0.00636   0.00635   1.17908
   D44       -0.90449   0.00046   0.00000   0.00555   0.00554  -0.89895
   D45       -3.00293   0.00056   0.00000   0.00740   0.00740  -2.99554
         Item               Value     Threshold  Converged?
 Maximum Force            0.005166     0.000450     NO 
 RMS     Force            0.001909     0.000300     NO 
 Maximum Displacement     0.041434     0.001800     NO 
 RMS     Displacement     0.015091     0.001200     NO 
 Predicted change in Energy=-6.563844D-04
 GradGradGradGradGradGradGradGradGradGradGradGradGradGradGradGradGradGrad

                          Input orientation:                          
 ---------------------------------------------------------------------
 Center     Atomic      Atomic             Coordinates (Angstroms)
 Number     Number       Type             X           Y           Z
 ---------------------------------------------------------------------
      1          6           0        0.009367    0.777493    0.000000
      2          6           0       -0.009367   -0.777493    0.000000
      3          1           0       -1.041516    1.111473    0.000000
      4          1           0        1.041516   -1.111473    0.000000
      5          6           0        0.683742    1.360053    1.254824
      6          6           0        0.683742    1.360053   -1.254824
      7          6           0       -0.683742   -1.360053    1.254824
      8          6           0       -0.683742   -1.360053   -1.254824
      9          1           0        1.716931    0.998822    1.346404
     10          1           0        1.716931    0.998822   -1.346404
     11          1           0       -1.716931   -0.998822    1.346404
     12          1           0       -1.716931   -0.998822   -1.346404
     13          1           0        0.723201    2.454331    1.202229
     14          1           0        0.155593    1.098007    2.176165
     15          1           0        0.723201    2.454331   -1.202229
     16          1           0        0.155593    1.098007   -2.176165
     17          1           0       -0.723201   -2.454331    1.202229
     18          1           0       -0.155593   -1.098007    2.176165
     19          1           0       -0.723201   -2.454331   -1.202229
     20          1           0       -0.155593   -1.098007   -2.176165
 ---------------------------------------------------------------------
                    Distance matrix (angstroms):
                    1          2          3          4          5
     1  C    0.000000
     2  C    1.555099   0.000000
     3  H    1.102678   2.152563   0.000000
     4  H    2.152563   1.102678   3.046394   0.000000
     5  C    1.539071   2.573731   2.147764   2.794822   0.000000
     6  C    1.539071   2.573731   2.147764   2.794822   2.509648
     7  C    2.573731   1.539071   2.794822   2.147764   3.044502
     8  C    2.573731   1.539071   2.794822   2.147764   3.945545
     9  H    2.185765   2.819256   3.071568   2.592747   1.098342
    10  H    2.185765   2.819256   3.071568   2.592747   2.822119
    11  H    2.819256   2.185765   2.592747   3.071568   3.366885
    12  H    2.819256   2.185765   2.592747   3.071568   4.253694
    13  H    2.183278   3.525153   2.522470   3.776459   1.096252
    14  H    2.204497   2.877570   2.483736   3.225269   1.093837
    15  H    2.183278   3.525153   2.522470   3.776459   2.690002
    16  H    2.204497   2.877570   2.483736   3.225269   3.481278
    17  H    3.525153   2.183278   3.776459   2.522470   4.065930
    18  H    2.877570   2.204497   3.225269   2.483736   2.755978
    19  H    3.525153   2.183278   3.776459   2.522470   4.750382
    20  H    2.877570   2.204497   3.225269   2.483736   4.303281
                    6          7          8          9         10
     6  C    0.000000
     7  C    3.945545   0.000000
     8  C    3.044502   2.509648   0.000000
     9  H    2.822119   3.366885   4.253694   0.000000
    10  H    1.098342   4.253694   3.366885   2.692809   0.000000
    11  H    4.253694   1.098342   2.822119   3.972656   4.799293
    12  H    3.366885   2.822119   1.098342   4.799293   3.972656
    13  H    2.690002   4.065930   4.750382   1.768274   3.098635
    14  H    3.481278   2.755978   4.303281   1.770909   3.854363
    15  H    1.096252   4.750382   4.065930   3.098635   1.768274
    16  H    1.093837   4.303281   2.755978   3.854363   1.770909
    17  H    4.750382   1.096252   2.690002   4.230757   4.937008
    18  H    4.303281   1.093837   3.481278   2.931133   4.506832
    19  H    4.065930   2.690002   1.096252   4.937008   4.230757
    20  H    2.755978   3.481278   1.093837   4.506832   2.931133
                   11         12         13         14         15
    11  H    0.000000
    12  H    2.692809   0.000000
    13  H    4.230757   4.937008   0.000000
    14  H    2.931133   4.506832   1.763617   0.000000
    15  H    4.937008   4.230757   2.404458   3.684473   0.000000
    16  H    4.506832   2.931133   3.684473   4.352330   1.763617
    17  H    1.768274   3.098635   5.117329   3.786811   5.654067
    18  H    1.770909   3.854363   3.786811   2.217953   4.980456
    19  H    3.098635   1.768274   5.654067   4.980456   5.117329
    20  H    3.854363   1.770909   4.980456   4.884884   3.786811
                   16         17         18         19         20
    16  H    0.000000
    17  H    4.980456   0.000000
    18  H    4.884884   1.763617   0.000000
    19  H    3.786811   2.404458   3.684473   0.000000
    20  H    2.217953   3.684473   4.352330   1.763617   0.000000
 Stoichiometry    C6H14
 Framework group  C2H[SGH(C2H2),X(C4H12)]
 Deg. of freedom    15
 Full point group                 C2H     NOp   4
 Largest Abelian subgroup         C2H     NOp   4
 Largest concise Abelian subgroup C2H     NOp   4
                         Standard orientation:                         
 ---------------------------------------------------------------------
 Center     Atomic      Atomic             Coordinates (Angstroms)
 Number     Number       Type             X           Y           Z
 ---------------------------------------------------------------------
      1          6           0       -0.230903    0.742474    0.000000
      2          6           0        0.230903   -0.742474    0.000000
      3          1           0       -1.333562    0.736030    0.000000
      4          1           0        1.333562   -0.736030    0.000000
      5          6           0        0.230903    1.504637    1.254824
      6          6           0        0.230903    1.504637   -1.254824
      7          6           0       -0.230903   -1.504637    1.254824
      8          6           0       -0.230903   -1.504637   -1.254824
      9          1           0        1.325137    1.479700    1.346404
     10          1           0        1.325137    1.479700   -1.346404
     11          1           0       -1.325137   -1.479700    1.346404
     12          1           0       -1.325137   -1.479700   -1.346404
     13          1           0       -0.069085    2.557731    1.202229
     14          1           0       -0.190668    1.092463    2.176165
     15          1           0       -0.069085    2.557731   -1.202229
     16          1           0       -0.190668    1.092463   -2.176165
     17          1           0        0.069085   -2.557731    1.202229
     18          1           0        0.190668   -1.092463    2.176165
     19          1           0        0.069085   -2.557731   -1.202229
     20          1           0        0.190668   -1.092463   -2.176165
 ---------------------------------------------------------------------
 Rotational constants (GHZ):      4.1917689      2.8444853      1.8531304
 Standard basis: 6-31G(d) (6D, 7F)
 There are    34 symmetry adapted basis functions of AG  symmetry.
 There are    25 symmetry adapted basis functions of BG  symmetry.
 There are    25 symmetry adapted basis functions of AU  symmetry.
 There are    34 symmetry adapted basis functions of BU  symmetry.
 Integral buffers will be    131072 words long.
 Raffenetti 2 integral format.
 Two-electron integral symmetry is turned on.
   118 basis functions,   224 primitive gaussians,   118 cartesian basis functions
    25 alpha electrons       25 beta electrons
       nuclear repulsion energy       261.2838297269 Hartrees.
 NAtoms=   20 NActive=   20 NUniq=    6 SFac= 4.00D+00 NAtFMM=   50 NAOKFM=F Big=F
 One-electron integrals computed using PRISM.
 NBasis=   118 RedAO= T  NBF=    34    25    25    34
 NBsUse=   118 1.00D-06 NBFU=    34    25    25    34
 Initial guess read from the read-write file.
 B after Tr=     0.000000    0.000000    0.000000
         Rot=    1.000000    0.000000    0.000000    0.000000 Ang=   0.00 deg.
 Initial guess orbital symmetries:
       Occupied  (AG) (BU) (BG) (AU) (BU) (AG) (AG) (BU) (AU) (BG)
                 (AG) (BU) (BU) (AG) (AG) (AU) (BU) (BG) (AU) (BG)
                 (AU) (BU) (AG) (BG) (AG)
       Virtual   (AG) (BU) (BU) (AU) (AG) (BU) (AG) (AU) (BG) (AG)
                 (AU) (BU) (BG) (BG) (BU) (AG) (AU) (BG) (BU) (AU)
                 (AG) (BG) (BU) (AG) (BU) (BU) (AG) (AU) (BG) (AG)
                 (AU) (BU) (BG) (BU) (AG) (AU) (BU) (AG) (AU) (BU)
                 (BG) (BG) (AG) (AU) (AG) (BU) (BG) (AG) (AU) (BU)
                 (BG) (AG) (BU) (BG) (BU) (AU) (AG) (BG) (AU) (AG)
                 (BU) (BG) (AU) (AU) (BG) (AG) (BU) (AG) (BU) (AU)
                 (AG) (BU) (BG) (AG) (BU) (AG) (AU) (BG) (AU) (BU)
                 (BG) (AG) (BU) (AG) (AU) (BU) (BG) (AG) (BU) (BG)
                 (AU) (AG) (BU)
 Harris functional with IExCor=  402 diagonalized for initial guess.
 ExpMin= 1.61D-01 ExpMax= 3.05D+03 ExpMxC= 4.57D+02 IAcc=1 IRadAn=         1 AccDes= 0.00D+00
 HarFok:  IExCor=  402 AccDes= 0.00D+00 IRadAn=         1 IDoV= 1
 ScaDFX=  1.000000  1.000000  1.000000  1.000000
 FoFCou: FMM=F IPFlag=           0 FMFlag=      100000 FMFlg1=           0
         NFxFlg=           0 DoJE=T BraDBF=F KetDBF=T FulRan=T
         Omega=  0.000000  0.000000  1.000000  0.000000  0.000000 ICntrl=     500 IOpCl=  0
         NMat0=    1 NMatS0=    1 NMatT0=    0 NMatD0=    1 NMtDS0=    0 NMtDT0=    0
         I1Cent=           4 NGrid=           0.
 Petite list used in FoFCou.
 Requested convergence on RMS density matrix=1.00D-08 within 128 cycles.
 Requested convergence on MAX density matrix=1.00D-06.
 Requested convergence on             energy=1.00D-06.
 No special actions if energy rises.
 Keep R1 ints in memory in canonical form, NReq=25818267.
 Integral accuracy reduced to 1.0D-05 until final iterations.
 Initial convergence to 1.0D-05 achieved.  Increase integral accuracy.
 SCF Done:  E(RB3LYP) =  -237.082461777     A.U. after    9 cycles
             Convg  =    0.8331D-08             -V/T =  2.0105
 Calling FoFJK, ICntrl=      2127 FMM=F ISym2X=1 I1Cent= 0 IOpClX= 0 NMat=1 NMatS=1 NMatT=0.
 ***** Axes restored to original set *****
 -------------------------------------------------------------------
 Center     Atomic                   Forces (Hartrees/Bohr)
 Number     Number              X              Y              Z
 -------------------------------------------------------------------
      1        6          -0.001508807    0.000302529    0.000000000
      2        6           0.001508807   -0.000302529    0.000000000
      3        1           0.000149588    0.000098585    0.000000000
      4        1          -0.000149588   -0.000098585    0.000000000
      5        6           0.000437249   -0.000694711   -0.000086875
      6        6           0.000437249   -0.000694711    0.000086875
      7        6          -0.000437249    0.000694711   -0.000086875
      8        6          -0.000437249    0.000694711    0.000086875
      9        1           0.000103423    0.000031313    0.000083819
     10        1           0.000103423    0.000031313   -0.000083819
     11        1          -0.000103423   -0.000031313    0.000083819
     12        1          -0.000103423   -0.000031313   -0.000083819
     13        1          -0.000166023    0.000025149   -0.000333773
     14        1          -0.000251745   -0.000373545    0.000128824
     15        1          -0.000166023    0.000025149    0.000333773
     16        1          -0.000251745   -0.000373545   -0.000128824
     17        1           0.000166023   -0.000025149   -0.000333773
     18        1           0.000251745    0.000373545    0.000128824
     19        1           0.000166023   -0.000025149    0.000333773
     20        1           0.000251745    0.000373545   -0.000128824
 -------------------------------------------------------------------
 Cartesian Forces:  Max     0.001508807 RMS     0.000388092

 GradGradGradGradGradGradGradGradGradGradGradGradGradGradGradGradGradGrad
 Berny optimization.
 Using GEDIIS/GDIIS optimizer.
 Internal  Forces:  Max     0.001628239 RMS     0.000331908
 Search for a local minimum.
 Step number   2 out of a maximum of  110
 All quantities printed in internal units (Hartrees-Bohrs-Radians)
 Mixed Optimization -- En-DIIS/RFO-DIIS
 Update second derivatives using D2CorX and points    1    2
 DE= -5.80D-04 DEPred=-6.56D-04 R= 8.83D-01
 SS=  1.41D+00  RLast= 9.18D-02 DXNew= 5.0454D-01 2.7548D-01
 Trust test= 8.83D-01 RLast= 9.18D-02 DXMaxT set to 3.00D-01
 ITU=  1  0
 Use linear search instead of GDIIS.
     Eigenvalues ---    0.00230   0.00300   0.00303   0.00303   0.00303
     Eigenvalues ---    0.03315   0.03514   0.04625   0.04625   0.04966
     Eigenvalues ---    0.05013   0.05291   0.05296   0.05296   0.05296
     Eigenvalues ---    0.05512   0.05515   0.05515   0.05515   0.15540
     Eigenvalues ---    0.16000   0.16000   0.16000   0.16000   0.16000
     Eigenvalues ---    0.16000   0.16000   0.16000   0.16000   0.16000
     Eigenvalues ---    0.16301   0.16698   0.16698   0.17319   0.17780
     Eigenvalues ---    0.28362   0.28966   0.28966   0.28966   0.29408
     Eigenvalues ---    0.32233   0.32562   0.33044   0.33070   0.33070
     Eigenvalues ---    0.33070   0.33221   0.33314   0.33314   0.33314
     Eigenvalues ---    0.33565   0.33565   0.33565   0.34478
 RFO step:  Lambda=-6.29123957D-05 EMin= 2.30000000D-03
 Quartic linear search produced a step of -0.09754.
 Iteration  1 RMS(Cart)=  0.00948719 RMS(Int)=  0.00004412
 Iteration  2 RMS(Cart)=  0.00004907 RMS(Int)=  0.00000286
 Iteration  3 RMS(Cart)=  0.00000000 RMS(Int)=  0.00000286
 ClnCor:  largest displacement from symmetrization is 1.36D-09 for atom    16.
 Variable       Old X    -DE/DX   Delta X   Delta X   Delta X     New X
                                 (Linear)    (Quad)   (Total)
    R1        2.93871  -0.00163  -0.00179  -0.00258  -0.00436   2.93435
    R2        2.08376  -0.00011   0.00142  -0.00242  -0.00100   2.08276
    R3        2.90842  -0.00050  -0.00075  -0.00044  -0.00119   2.90723
    R4        2.90842  -0.00050  -0.00075  -0.00044  -0.00119   2.90723
    R5        2.08376  -0.00011   0.00142  -0.00242  -0.00100   2.08276
    R6        2.90842  -0.00050  -0.00075  -0.00044  -0.00119   2.90723
    R7        2.90842  -0.00050  -0.00075  -0.00044  -0.00119   2.90723
    R8        2.07557   0.00009   0.00134  -0.00174  -0.00040   2.07516
    R9        2.07162   0.00004   0.00131  -0.00185  -0.00054   2.07107
   R10        2.06705   0.00032   0.00133  -0.00112   0.00021   2.06726
   R11        2.07557   0.00009   0.00134  -0.00174  -0.00040   2.07516
   R12        2.07162   0.00004   0.00131  -0.00185  -0.00054   2.07107
   R13        2.06705   0.00032   0.00133  -0.00112   0.00021   2.06726
   R14        2.07557   0.00009   0.00134  -0.00174  -0.00040   2.07516
   R15        2.07162   0.00004   0.00131  -0.00185  -0.00054   2.07107
   R16        2.06705   0.00032   0.00133  -0.00112   0.00021   2.06726
   R17        2.07557   0.00009   0.00134  -0.00174  -0.00040   2.07516
   R18        2.07162   0.00004   0.00131  -0.00185  -0.00054   2.07107
   R19        2.06705   0.00032   0.00133  -0.00112   0.00021   2.06726
    A1        1.86646   0.00039   0.00033   0.00250   0.00283   1.86929
    A2        1.96467  -0.00053  -0.00091  -0.00343  -0.00434   1.96032
    A3        1.96467  -0.00053  -0.00091  -0.00343  -0.00434   1.96032
    A4        1.87858  -0.00004   0.00084   0.00118   0.00202   1.88059
    A5        1.87858  -0.00004   0.00084   0.00118   0.00202   1.88059
    A6        1.90654   0.00077  -0.00002   0.00240   0.00237   1.90891
    A7        1.86646   0.00039   0.00033   0.00250   0.00283   1.86929
    A8        1.96467  -0.00053  -0.00091  -0.00343  -0.00434   1.96032
    A9        1.96467  -0.00053  -0.00091  -0.00343  -0.00434   1.96032
   A10        1.87858  -0.00004   0.00084   0.00118   0.00202   1.88059
   A11        1.87858  -0.00004   0.00084   0.00118   0.00202   1.88059
   A12        1.90654   0.00077  -0.00002   0.00240   0.00237   1.90891
   A13        1.93443   0.00030  -0.00082   0.00310   0.00228   1.93671
   A14        1.93316  -0.00048  -0.00035  -0.00226  -0.00261   1.93056
   A15        1.96546  -0.00036  -0.00015  -0.00197  -0.00212   1.96333
   A16        1.87385   0.00013   0.00053   0.00021   0.00075   1.87460
   A17        1.88092   0.00004   0.00045  -0.00032   0.00013   1.88105
   A18        1.87227   0.00041   0.00041   0.00133   0.00173   1.87400
   A19        1.93443   0.00030  -0.00082   0.00310   0.00228   1.93671
   A20        1.93316  -0.00048  -0.00035  -0.00226  -0.00261   1.93056
   A21        1.96546  -0.00036  -0.00015  -0.00197  -0.00212   1.96333
   A22        1.87385   0.00013   0.00053   0.00021   0.00075   1.87460
   A23        1.88092   0.00004   0.00045  -0.00032   0.00013   1.88105
   A24        1.87227   0.00041   0.00041   0.00133   0.00173   1.87400
   A25        1.93443   0.00030  -0.00082   0.00310   0.00228   1.93671
   A26        1.93316  -0.00048  -0.00035  -0.00226  -0.00261   1.93056
   A27        1.96546  -0.00036  -0.00015  -0.00197  -0.00212   1.96333
   A28        1.87385   0.00013   0.00053   0.00021   0.00075   1.87460
   A29        1.88092   0.00004   0.00045  -0.00032   0.00013   1.88105
   A30        1.87227   0.00041   0.00041   0.00133   0.00173   1.87400
   A31        1.93443   0.00030  -0.00082   0.00310   0.00228   1.93671
   A32        1.93316  -0.00048  -0.00035  -0.00226  -0.00261   1.93056
   A33        1.96546  -0.00036  -0.00015  -0.00197  -0.00212   1.96333
   A34        1.87385   0.00013   0.00053   0.00021   0.00075   1.87460
   A35        1.88092   0.00004   0.00045  -0.00032   0.00013   1.88105
   A36        1.87227   0.00041   0.00041   0.00133   0.00173   1.87400
    D1        3.14159   0.00000   0.00000   0.00000   0.00000   3.14159
    D2       -1.08204  -0.00010   0.00071   0.00108   0.00179  -1.08025
    D3        1.08204   0.00010  -0.00071  -0.00108  -0.00179   1.08025
    D4       -1.08204  -0.00010   0.00071   0.00108   0.00179  -1.08025
    D5        0.97752  -0.00020   0.00143   0.00216   0.00358   0.98109
    D6        3.14159   0.00000   0.00000   0.00000   0.00000   3.14159
    D7        1.08204   0.00010  -0.00071  -0.00108  -0.00179   1.08025
    D8        3.14159   0.00000   0.00000   0.00000   0.00000   3.14159
    D9       -0.97752   0.00020  -0.00143  -0.00216  -0.00358  -0.98109
   D10        1.01682  -0.00018  -0.00124   0.01039   0.00915   1.02597
   D11        3.09485  -0.00014  -0.00132   0.01119   0.00987   3.10472
   D12       -1.09175  -0.00019  -0.00114   0.00996   0.00883  -1.08292
   D13        3.06922  -0.00003  -0.00083   0.01223   0.01140   3.08062
   D14       -1.13593   0.00001  -0.00091   0.01303   0.01211  -1.12382
   D15        0.96065  -0.00005  -0.00073   0.01180   0.01107   0.97172
   D16       -1.17908   0.00031   0.00062   0.01555   0.01617  -1.16291
   D17        0.89895   0.00035   0.00054   0.01635   0.01689   0.91584
   D18        2.99554   0.00029   0.00072   0.01512   0.01584   3.01138
   D19       -1.01682   0.00018   0.00124  -0.01039  -0.00915  -1.02597
   D20       -3.09485   0.00014   0.00132  -0.01119  -0.00987  -3.10472
   D21        1.09175   0.00019   0.00114  -0.00996  -0.00883   1.08292
   D22       -3.06922   0.00003   0.00083  -0.01223  -0.01140  -3.08062
   D23        1.13593  -0.00001   0.00091  -0.01303  -0.01211   1.12382
   D24       -0.96065   0.00005   0.00073  -0.01180  -0.01107  -0.97172
   D25        1.17908  -0.00031  -0.00062  -0.01555  -0.01617   1.16291
   D26       -0.89895  -0.00035  -0.00054  -0.01635  -0.01689  -0.91584
   D27       -2.99554  -0.00029  -0.00072  -0.01512  -0.01584  -3.01138
   D28        1.01682  -0.00018  -0.00124   0.01039   0.00915   1.02597
   D29        3.09485  -0.00014  -0.00132   0.01119   0.00987   3.10472
   D30       -1.09175  -0.00019  -0.00114   0.00996   0.00883  -1.08292
   D31        3.06922  -0.00003  -0.00083   0.01223   0.01140   3.08062
   D32       -1.13593   0.00001  -0.00091   0.01303   0.01211  -1.12382
   D33        0.96065  -0.00005  -0.00073   0.01180   0.01107   0.97172
   D34       -1.17908   0.00031   0.00062   0.01555   0.01617  -1.16291
   D35        0.89895   0.00035   0.00054   0.01635   0.01689   0.91584
   D36        2.99554   0.00029   0.00072   0.01512   0.01584   3.01138
   D37       -1.01682   0.00018   0.00124  -0.01039  -0.00915  -1.02597
   D38       -3.09485   0.00014   0.00132  -0.01119  -0.00987  -3.10472
   D39        1.09175   0.00019   0.00114  -0.00996  -0.00883   1.08292
   D40       -3.06922   0.00003   0.00083  -0.01223  -0.01140  -3.08062
   D41        1.13593  -0.00001   0.00091  -0.01303  -0.01211   1.12382
   D42       -0.96065   0.00005   0.00073  -0.01180  -0.01107  -0.97172
   D43        1.17908  -0.00031  -0.00062  -0.01555  -0.01617   1.16291
   D44       -0.89895  -0.00035  -0.00054  -0.01635  -0.01689  -0.91584
   D45       -2.99554  -0.00029  -0.00072  -0.01512  -0.01584  -3.01138
         Item               Value     Threshold  Converged?
 Maximum Force            0.001628     0.000450     NO 
 RMS     Force            0.000332     0.000300     NO 
 Maximum Displacement     0.034797     0.001800     NO 
 RMS     Displacement     0.009491     0.001200     NO 
 Predicted change in Energy=-3.854765D-05
 GradGradGradGradGradGradGradGradGradGradGradGradGradGradGradGradGradGrad

                          Input orientation:                          
 ---------------------------------------------------------------------
 Center     Atomic      Atomic             Coordinates (Angstroms)
 Number     Number       Type             X           Y           Z
 ---------------------------------------------------------------------
      1          6           0        0.008207    0.776352    0.000000
      2          6           0       -0.008207   -0.776352    0.000000
      3          1           0       -1.041719    1.111592    0.000000
      4          1           0        1.041719   -1.111592    0.000000
      5          6           0        0.684823    1.353455    1.255365
      6          6           0        0.684823    1.353455   -1.255365
      7          6           0       -0.684823   -1.353455    1.255365
      8          6           0       -0.684823   -1.353455   -1.255365
      9          1           0        1.721013    1.000058    1.340855
     10          1           0        1.721013    1.000058   -1.340855
     11          1           0       -1.721013   -1.000058    1.340855
     12          1           0       -1.721013   -1.000058   -1.340855
     13          1           0        0.714505    2.448037    1.209013
     14          1           0        0.161502    1.079594    2.176157
     15          1           0        0.714505    2.448037   -1.209013
     16          1           0        0.161502    1.079594   -2.176157
     17          1           0       -0.714505   -2.448037    1.209013
     18          1           0       -0.161502   -1.079594    2.176157
     19          1           0       -0.714505   -2.448037   -1.209013
     20          1           0       -0.161502   -1.079594   -2.176157
 ---------------------------------------------------------------------
                    Distance matrix (angstroms):
                    1          2          3          4          5
     1  C    0.000000
     2  C    1.552790   0.000000
     3  H    1.102149   2.152320   0.000000
     4  H    2.152320   1.102149   3.046845   0.000000
     5  C    1.538440   2.567549   2.148345   2.789225   0.000000
     6  C    1.538440   2.567549   2.148345   2.789225   2.510730
     7  C    2.567549   1.538440   2.789225   2.148345   3.033693
     8  C    2.567549   1.538440   2.789225   2.148345   3.937900
     9  H    2.186696   2.818461   3.072950   2.591987   1.098129
    10  H    2.186696   2.818461   3.072950   2.591987   2.817612
    11  H    2.818461   2.186696   2.591987   3.072950   3.366657
    12  H    2.818461   2.186696   2.591987   3.072950   4.250580
    13  H    2.180620   3.518623   2.516371   3.773558   1.095965
    14  H    2.202525   2.865134   2.486851   3.211189   1.093949
    15  H    2.180620   3.518623   2.516371   3.773558   2.696692
    16  H    2.202525   2.865134   2.486851   3.211189   3.481983
    17  H    3.518623   2.180620   3.773558   2.516371   4.051125
    18  H    2.865134   2.202525   3.211189   2.486851   2.735663
    19  H    3.518623   2.180620   3.773558   2.516371   4.741584
    20  H    2.865134   2.202525   3.211189   2.486851   4.290843
                    6          7          8          9         10
     6  C    0.000000
     7  C    3.937900   0.000000
     8  C    3.033693   2.510730   0.000000
     9  H    2.817612   3.366657   4.250580   0.000000
    10  H    1.098129   4.250580   3.366657   2.681709   0.000000
    11  H    4.250580   1.098129   2.817612   3.980955   4.799955
    12  H    3.366657   2.817612   1.098129   4.799955   3.980955
    13  H    2.696692   4.051125   4.741584   1.768356   3.100246
    14  H    3.481983   2.735663   4.290843   1.770912   3.848087
    15  H    1.095965   4.741584   4.051125   3.100246   1.768356
    16  H    1.093949   4.290843   2.735663   3.848087   1.770912
    17  H    4.741584   1.095965   2.696692   4.223564   4.931829
    18  H    4.290843   1.093949   3.481983   2.926866   4.498687
    19  H    4.051125   2.696692   1.095965   4.931829   4.223564
    20  H    2.735663   3.481983   1.093949   4.498687   2.926866
                   11         12         13         14         15
    11  H    0.000000
    12  H    2.681709   0.000000
    13  H    4.223564   4.931829   0.000000
    14  H    2.926866   4.498687   1.764602   0.000000
    15  H    4.931829   4.223564   2.418026   3.692943   0.000000
    16  H    4.498687   2.926866   3.692943   4.352314   1.764602
    17  H    1.768356   3.100246   5.100355   3.761241   5.644508
    18  H    1.770912   3.848087   3.761241   2.183213   4.966985
    19  H    3.100246   1.768356   5.644508   4.966985   5.100355
    20  H    3.848087   1.770912   4.966985   4.869195   3.761241
                   16         17         18         19         20
    16  H    0.000000
    17  H    4.966985   0.000000
    18  H    4.869195   1.764602   0.000000
    19  H    3.761241   2.418026   3.692943   0.000000
    20  H    2.183213   3.692943   4.352314   1.764602   0.000000
 Stoichiometry    C6H14
 Framework group  C2H[SGH(C2H2),X(C4H12)]
 Deg. of freedom    15
 Full point group                 C2H     NOp   4
 Largest Abelian subgroup         C2H     NOp   4
 Largest concise Abelian subgroup C2H     NOp   4
                         Standard orientation:                         
 ---------------------------------------------------------------------
 Center     Atomic      Atomic             Coordinates (Angstroms)
 Number     Number       Type             X           Y           Z
 ---------------------------------------------------------------------
      1          6           0       -0.232419    0.740791    0.000000
      2          6           0        0.232419   -0.740791    0.000000
      3          1           0       -1.334551    0.734704    0.000000
      4          1           0        1.334551   -0.734704    0.000000
      5          6           0        0.232419    1.498935    1.255365
      6          6           0        0.232419    1.498935   -1.255365
      7          6           0       -0.232419   -1.498935    1.255365
      8          6           0       -0.232419   -1.498935   -1.255365
      9          1           0        1.327107    1.483505    1.340855
     10          1           0        1.327107    1.483505   -1.340855
     11          1           0       -1.327107   -1.483505    1.340855
     12          1           0       -1.327107   -1.483505   -1.340855
     13          1           0       -0.078047    2.548983    1.209013
     14          1           0       -0.180479    1.076584    2.176157
     15          1           0       -0.078047    2.548983   -1.209013
     16          1           0       -0.180479    1.076584   -2.176157
     17          1           0        0.078047   -2.548983    1.209013
     18          1           0        0.180479   -1.076584    2.176157
     19          1           0        0.078047   -2.548983   -1.209013
     20          1           0        0.180479   -1.076584   -2.176157
 ---------------------------------------------------------------------
 Rotational constants (GHZ):      4.1877467      2.8620828      1.8604059
 Standard basis: 6-31G(d) (6D, 7F)
 There are    34 symmetry adapted basis functions of AG  symmetry.
 There are    25 symmetry adapted basis functions of BG  symmetry.
 There are    25 symmetry adapted basis functions of AU  symmetry.
 There are    34 symmetry adapted basis functions of BU  symmetry.
 Integral buffers will be    131072 words long.
 Raffenetti 2 integral format.
 Two-electron integral symmetry is turned on.
   118 basis functions,   224 primitive gaussians,   118 cartesian basis functions
    25 alpha electrons       25 beta electrons
       nuclear repulsion energy       261.5770727662 Hartrees.
 NAtoms=   20 NActive=   20 NUniq=    6 SFac= 4.00D+00 NAtFMM=   50 NAOKFM=F Big=F
 One-electron integrals computed using PRISM.
 NBasis=   118 RedAO= T  NBF=    34    25    25    34
 NBsUse=   118 1.00D-06 NBFU=    34    25    25    34
 Initial guess read from the read-write file.
 B after Tr=     0.000000    0.000000    0.000000
         Rot=    1.000000    0.000000    0.000000    0.000000 Ang=   0.00 deg.
 Initial guess orbital symmetries:
       Occupied  (AG) (BU) (BG) (AU) (BU) (AG) (AG) (BU) (AU) (BG)
                 (AG) (BU) (BU) (AG) (AG) (AU) (BU) (BG) (AU) (BG)
                 (AU) (BU) (AG) (BG) (AG)
       Virtual   (AG) (BU) (BU) (AU) (AG) (BU) (AG) (AU) (BG) (AG)
                 (AU) (BU) (BG) (BG) (BU) (AG) (AU) (BU) (BG) (AU)
                 (AG) (BG) (BU) (AG) (BU) (BU) (AG) (AU) (BG) (AG)
                 (AU) (BU) (BG) (BU) (AG) (AU) (AG) (BU) (AU) (BG)
                 (BU) (BG) (AG) (AU) (AG) (BU) (BG) (AG) (AU) (BU)
                 (BG) (AG) (BU) (BG) (BU) (AU) (AG) (AU) (BG) (AG)
                 (BU) (BG) (AU) (AU) (BG) (AG) (BU) (BU) (AG) (AU)
                 (AG) (BU) (BG) (AG) (BU) (AG) (AU) (BG) (AU) (BU)
                 (BG) (AG) (BU) (AG) (AU) (BU) (BG) (AG) (BU) (BG)
                 (AU) (AG) (BU)
 Harris functional with IExCor=  402 diagonalized for initial guess.
 ExpMin= 1.61D-01 ExpMax= 3.05D+03 ExpMxC= 4.57D+02 IAcc=1 IRadAn=         1 AccDes= 0.00D+00
 HarFok:  IExCor=  402 AccDes= 0.00D+00 IRadAn=         1 IDoV= 1
 ScaDFX=  1.000000  1.000000  1.000000  1.000000
 FoFCou: FMM=F IPFlag=           0 FMFlag=      100000 FMFlg1=           0
         NFxFlg=           0 DoJE=T BraDBF=F KetDBF=T FulRan=T
         Omega=  0.000000  0.000000  1.000000  0.000000  0.000000 ICntrl=     500 IOpCl=  0
         NMat0=    1 NMatS0=    1 NMatT0=    0 NMatD0=    1 NMtDS0=    0 NMtDT0=    0
         I1Cent=           4 NGrid=           0.
 Petite list used in FoFCou.
 Requested convergence on RMS density matrix=1.00D-08 within 128 cycles.
 Requested convergence on MAX density matrix=1.00D-06.
 Requested convergence on             energy=1.00D-06.
 No special actions if energy rises.
 Keep R1 ints in memory in canonical form, NReq=25818267.
 Integral accuracy reduced to 1.0D-05 until final iterations.
 Initial convergence to 1.0D-05 achieved.  Increase integral accuracy.
 SCF Done:  E(RB3LYP) =  -237.082484760     A.U. after    8 cycles
             Convg  =    0.7971D-08             -V/T =  2.0104
 Calling FoFJK, ICntrl=      2127 FMM=F ISym2X=1 I1Cent= 0 IOpClX= 0 NMat=1 NMatS=1 NMatT=0.
 ***** Axes restored to original set *****
 -------------------------------------------------------------------
 Center     Atomic                   Forces (Hartrees/Bohr)
 Number     Number              X              Y              Z
 -------------------------------------------------------------------
      1        6           0.000296332   -0.000168497    0.000000000
      2        6          -0.000296332    0.000168497    0.000000000
      3        1          -0.000048626    0.000117518    0.000000000
      4        1           0.000048626   -0.000117518    0.000000000
      5        6          -0.000070762    0.000154960   -0.000140216
      6        6          -0.000070762    0.000154960    0.000140216
      7        6           0.000070762   -0.000154960   -0.000140216
      8        6           0.000070762   -0.000154960    0.000140216
      9        1           0.000137131   -0.000110051   -0.000069783
     10        1           0.000137131   -0.000110051    0.000069783
     11        1          -0.000137131    0.000110051   -0.000069783
     12        1          -0.000137131    0.000110051    0.000069783
[...]

                          Input orientation:                          
 ---------------------------------------------------------------------
 Center     Atomic      Atomic             Coordinates (Angstroms)
 Number     Number       Type             X           Y           Z
 ---------------------------------------------------------------------
      1          6           0        0.008024    0.776695    0.000000
      2          6           0       -0.008024   -0.776695    0.000000
      3          1           0       -1.041938    1.112331    0.000000
      4          1           0        1.041938   -1.112331    0.000000
      5          6           0        0.684475    1.355689    1.254491
      6          6           0        0.684475    1.355689   -1.254491
      7          6           0       -0.684475   -1.355689    1.254491
      8          6           0       -0.684475   -1.355689   -1.254491
      9          1           0        1.719701    0.999211    1.341999
     10          1           0        1.719701    0.999211   -1.341999
     11          1           0       -1.719701   -0.999211    1.341999
     12          1           0       -1.719701   -0.999211   -1.341999
     13          1           0        0.717466    2.450403    1.204402
     14          1           0        0.158904    1.086341    2.175581
     15          1           0        0.717466    2.450403   -1.204402
     16          1           0        0.158904    1.086341   -2.175581
     17          1           0       -0.717466   -2.450403    1.204402
     18          1           0       -0.158904   -1.086341    2.175581
     19          1           0       -0.717466   -2.450403   -1.204402
     20          1           0       -0.158904   -1.086341   -2.175581
 ---------------------------------------------------------------------
                    Distance matrix (angstroms):
                    1          2          3          4          5
     1  C    0.000000
     2  C    1.553474   0.000000
     3  H    1.102304   2.153462   0.000000
     4  H    2.153462   1.102304   3.048223   0.000000
     5  C    1.538364   2.569117   2.147899   2.791531   0.000000
     6  C    1.538364   2.569117   2.147899   2.791531   2.508981
     7  C    2.569117   1.538364   2.791531   2.147899   3.037365
     8  C    2.569117   1.538364   2.791531   2.147899   3.939616
     9  H    2.186392   2.817772   3.072524   2.592090   1.098375
    10  H    2.186392   2.817772   3.072524   2.592090   2.817894
    11  H    2.817772   2.186392   2.592090   3.072524   3.366492
    12  H    2.817772   2.186392   2.592090   3.072524   4.250572
    13  H    2.180640   3.520098   2.517246   3.774777   1.096357
    14  H    2.202680   2.869133   2.485126   3.216685   1.094157
    15  H    2.180640   3.520098   2.517246   3.774777   2.691773
    16  H    2.202680   2.869133   2.485126   3.216685   3.480541
    17  H    3.520098   2.180640   3.774777   2.517246   4.056388
    18  H    2.869133   2.202680   3.216685   2.485126   2.742846
    19  H    3.520098   2.180640   3.774777   2.517246   4.743198
    20  H    2.869133   2.202680   3.216685   2.485126   4.294204
                    6          7          8          9         10
     6  C    0.000000
     7  C    3.939616   0.000000
     8  C    3.037365   2.508981   0.000000
     9  H    2.817894   3.366492   4.250572   0.000000
    10  H    1.098375   4.250572   3.366492   2.683997   0.000000
    11  H    4.250572   1.098375   2.817894   3.977835   4.798647
    12  H    3.366492   2.817894   1.098375   4.798647   3.977835
    13  H    2.691773   4.056388   4.743198   1.769002   3.097514
    14  H    3.480541   2.742846   4.294204   1.771592   3.849292
    15  H    1.096357   4.743198   4.056388   3.097514   1.769002
    16  H    1.094157   4.294204   2.742846   3.849292   1.771592
    17  H    4.743198   1.096357   2.691773   4.225938   4.931914
    18  H    4.294204   1.094157   3.480541   2.928061   4.500228
    19  H    4.056388   2.691773   1.096357   4.931914   4.225938
    20  H    2.742846   3.480541   1.094157   4.500228   2.928061
                   11         12         13         14         15
    11  H    0.000000
    12  H    2.683997   0.000000
    13  H    4.225938   4.931914   0.000000
    14  H    2.928061   4.500228   1.765176   0.000000
    15  H    4.931914   4.225938   2.408804   3.687404   0.000000
    16  H    4.500228   2.928061   3.687404   4.351163   1.765176
    17  H    1.769002   3.097514   5.106558   3.770912   5.646173
    18  H    1.771592   3.849292   3.770912   2.195803   4.969997
    19  H    3.097514   1.769002   5.646173   4.969997   5.106558
    20  H    3.849292   1.771592   4.969997   4.873825   3.770912
                   16         17         18         19         20
    16  H    0.000000
    17  H    4.969997   0.000000
    18  H    4.873825   1.765176   0.000000
    19  H    3.770912   2.408804   3.687404   0.000000
    20  H    2.195803   3.687404   4.351163   1.765176   0.000000
 Stoichiometry    C6H14
 Framework group  C2H[SGH(C2H2),X(C4H12)]
 Deg. of freedom    15
 Full point group                 C2H     NOp   4
 Largest Abelian subgroup         C2H     NOp   4
 Largest concise Abelian subgroup C2H     NOp   4
                         Standard orientation:                         
 ---------------------------------------------------------------------
 Center     Atomic      Atomic             Coordinates (Angstroms)
 Number     Number       Type             X           Y           Z
 ---------------------------------------------------------------------
      1          6           0       -0.232269    0.741196    0.000000
      2          6           0        0.232269   -0.741196    0.000000
      3          1           0       -1.334561    0.736113    0.000000
      4          1           0        1.334561   -0.736113    0.000000
      5          6           0        0.232269    1.500816    1.254491
      6          6           0        0.232269    1.500816   -1.254491
      7          6           0       -0.232269   -1.500816    1.254491
      8          6           0       -0.232269   -1.500816   -1.254491
      9          1           0        1.326982    1.481523    1.341999
     10          1           0        1.326982    1.481523   -1.341999
     11          1           0       -1.326982   -1.481523    1.341999
     12          1           0       -1.326982   -1.481523   -1.341999
     13          1           0       -0.074482    2.552192    1.204402
     14          1           0       -0.184408    1.082304    2.175581
     15          1           0       -0.074482    2.552192   -1.204402
     16          1           0       -0.184408    1.082304   -2.175581
     17          1           0        0.074482   -2.552192    1.204402
     18          1           0        0.184408   -1.082304    2.175581
     19          1           0        0.074482   -2.552192   -1.204402
     20          1           0        0.184408   -1.082304   -2.175581
 ---------------------------------------------------------------------
 Rotational constants (GHZ):      4.1928864      2.8559559      1.8588258

 **********************************************************************

            Population analysis using the SCF density.

 **********************************************************************

 Orbital symmetries:
       Occupied  (AG) (BU) (BG) (AU) (BU) (AG) (AG) (BU) (AU) (BG)
                 (AG) (BU) (BU) (AG) (AG) (AU) (BU) (BG) (AU) (BG)
                 (AU) (BU) (AG) (BG) (AG)
       Virtual   (AG) (BU) (BU) (AU) (AG) (BU) (AG) (AU) (BG) (AG)
                 (AU) (BG) (BU) (BG) (BU) (AG) (AU) (BU) (BG) (AU)
                 (AG) (BG) (BU) (AG) (BU) (BU) (AG) (AU) (BG) (AU)
                 (AG) (BU) (BG) (BU) (AG) (AU) (AG) (BU) (AU) (BG)
                 (BG) (BU) (AG) (AU) (AG) (BU) (BG) (AG) (AU) (BU)
                 (BG) (AG) (BU) (BG) (BU) (AU) (AG) (AU) (BG) (AG)
                 (BU) (BG) (AU) (AU) (BG) (AG) (BU) (AG) (BU) (AU)
                 (AG) (BU) (BG) (AG) (BU) (AG) (AU) (BG) (AU) (BU)
                 (BG) (AG) (BU) (AG) (AU) (BU) (BG) (AG) (BU) (BG)
                 (AU) (AG) (BU)
 The electronic state is 1-AG.
 Alpha  occ. eigenvalues --  -10.18291 -10.18272 -10.16766 -10.16766 -10.16765
 Alpha  occ. eigenvalues --  -10.16765  -0.81124  -0.74163  -0.68616  -0.66280
 Alpha  occ. eigenvalues --   -0.60285  -0.54324  -0.45145  -0.44966  -0.42547
 Alpha  occ. eigenvalues --   -0.41628  -0.38760  -0.38356  -0.37336  -0.35835
 Alpha  occ. eigenvalues --   -0.35054  -0.33589  -0.31396  -0.30732  -0.30200
 Alpha virt. eigenvalues --    0.08374   0.11735   0.12937   0.13414   0.14207
 Alpha virt. eigenvalues --    0.16118   0.16427   0.17880   0.17987   0.18730
 Alpha virt. eigenvalues --    0.18881   0.20573   0.20644   0.23764   0.23796
 Alpha virt. eigenvalues --    0.25384   0.26832   0.27843   0.28085   0.49485
 Alpha virt. eigenvalues --    0.50446   0.51449   0.51668   0.55011   0.56494
 Alpha virt. eigenvalues --    0.62290   0.63152   0.63457   0.67442   0.73761
 Alpha virt. eigenvalues --    0.73828   0.74235   0.77895   0.80939   0.83949
 Alpha virt. eigenvalues --    0.85237   0.88762   0.88806   0.89831   0.91569
 Alpha virt. eigenvalues --    0.91721   0.91818   0.92653   0.93654   0.94279
 Alpha virt. eigenvalues --    0.95588   0.96338   0.98839   0.98959   1.01616
 Alpha virt. eigenvalues --    1.05553   1.06268   1.33051   1.38396   1.41076
 Alpha virt. eigenvalues --    1.41797   1.56953   1.57631   1.57889   1.69311
 Alpha virt. eigenvalues --    1.75405   1.79399   1.81670   1.84732   1.91763
 Alpha virt. eigenvalues --    1.92030   1.96198   2.01213   2.01322   2.02775
 Alpha virt. eigenvalues --    2.07552   2.12136   2.13077   2.18031   2.24881
 Alpha virt. eigenvalues --    2.25785   2.26141   2.28308   2.35821   2.41314
 Alpha virt. eigenvalues --    2.46018   2.48303   2.52141   2.59535   2.75768
 Alpha virt. eigenvalues --    2.76990   2.77618   4.13641   4.25479   4.29096
 Alpha virt. eigenvalues --    4.29290   4.47137   4.62547
          Condensed to atoms (all electrons):
              1          2          3          4          5          6
     1  C    4.858005   0.400448   0.370591  -0.046147   0.378491   0.378491
     2  C    0.400448   4.858005  -0.046147   0.370591  -0.044120  -0.044120
     3  H    0.370591  -0.046147   0.650193   0.007270  -0.047046  -0.047046
     4  H   -0.046147   0.370591   0.007270   0.650193  -0.006344  -0.006344
     5  C    0.378491  -0.044120  -0.047046  -0.006344   5.118837  -0.055990
     6  C    0.378491  -0.044120  -0.047046  -0.006344  -0.055990   5.118837
     7  C   -0.044120   0.378491  -0.006344  -0.047046  -0.005279   0.004637
     8  C   -0.044120   0.378491  -0.006344  -0.047046   0.004637  -0.005279
     9  H   -0.035157  -0.006033   0.005949   0.005944   0.371268  -0.004576
    10  H   -0.035157  -0.006033   0.005949   0.005944  -0.004576   0.371268
    11  H   -0.006033  -0.035157   0.005944   0.005949  -0.000747   0.000035
    12  H   -0.006033  -0.035157   0.005944   0.005949   0.000035  -0.000747
    13  H   -0.029201   0.004614  -0.002880  -0.000079   0.368659  -0.005434
    14  H   -0.027471  -0.005122  -0.003724  -0.000094   0.370582   0.005174
    15  H   -0.029201   0.004614  -0.002880  -0.000079  -0.005434   0.368659
    16  H   -0.027471  -0.005122  -0.003724  -0.000094   0.005174   0.370582
    17  H    0.004614  -0.029201  -0.000079  -0.002880   0.000181  -0.000141
    18  H   -0.005122  -0.027471  -0.000094  -0.003724   0.001976  -0.000004
    19  H    0.004614  -0.029201  -0.000079  -0.002880  -0.000141   0.000181
    20  H   -0.005122  -0.027471  -0.000094  -0.003724  -0.000004   0.001976
              7          8          9         10         11         12
     1  C   -0.044120  -0.044120  -0.035157  -0.035157  -0.006033  -0.006033
     2  C    0.378491   0.378491  -0.006033  -0.006033  -0.035157  -0.035157
     3  H   -0.006344  -0.006344   0.005949   0.005949   0.005944   0.005944
     4  H   -0.047046  -0.047046   0.005944   0.005944   0.005949   0.005949
     5  C   -0.005279   0.004637   0.371268  -0.004576  -0.000747   0.000035
     6  C    0.004637  -0.005279  -0.004576   0.371268   0.000035  -0.000747
     7  C    5.118837  -0.055990  -0.000747   0.000035   0.371268  -0.004576
     8  C   -0.055990   5.118837   0.000035  -0.000747  -0.004576   0.371268
     9  H   -0.000747   0.000035   0.585551   0.004310   0.000127   0.000011
    10  H    0.000035  -0.000747   0.004310   0.585551   0.000011   0.000127
    11  H    0.371268  -0.004576   0.000127   0.000011   0.585551   0.004310
    12  H   -0.004576   0.371268   0.000011   0.000127   0.004310   0.585551
    13  H    0.000181  -0.000141  -0.032116  -0.000207  -0.000041   0.000000
    14  H    0.001976  -0.000004  -0.032062  -0.000055   0.000630  -0.000004
    15  H   -0.000141   0.000181  -0.000207  -0.032116   0.000000  -0.000041
    16  H   -0.000004   0.001976  -0.000055  -0.032062  -0.000004   0.000630
    17  H    0.368659  -0.005434  -0.000041   0.000000  -0.032116  -0.000207
    18  H    0.370582   0.005174   0.000630  -0.000004  -0.032062  -0.000055
    19  H   -0.005434   0.368659   0.000000  -0.000041  -0.000207  -0.032116
    20  H    0.005174   0.370582  -0.000004   0.000630  -0.000055  -0.032062
             13         14         15         16         17         18
     1  C   -0.029201  -0.027471  -0.029201  -0.027471   0.004614  -0.005122
     2  C    0.004614  -0.005122   0.004614  -0.005122  -0.029201  -0.027471
     3  H   -0.002880  -0.003724  -0.002880  -0.003724  -0.000079  -0.000094
     4  H   -0.000079  -0.000094  -0.000079  -0.000094  -0.002880  -0.003724
     5  C    0.368659   0.370582  -0.005434   0.005174   0.000181   0.001976
     6  C   -0.005434   0.005174   0.368659   0.370582  -0.000141  -0.000004
     7  C    0.000181   0.001976  -0.000141  -0.000004   0.368659   0.370582
     8  C   -0.000141  -0.000004   0.000181   0.001976  -0.005434   0.005174
     9  H   -0.032116  -0.032062  -0.000207  -0.000055  -0.000041   0.000630
    10  H   -0.000207  -0.000055  -0.032116  -0.032062   0.000000  -0.000004
    11  H   -0.000041   0.000630   0.000000  -0.000004  -0.032116  -0.032062
    12  H    0.000000  -0.000004  -0.000041   0.000630  -0.000207  -0.000055
    13  H    0.583805  -0.030465   0.005164   0.000013  -0.000001  -0.000062
    14  H   -0.030465   0.573714   0.000013  -0.000186  -0.000062   0.002242
    15  H    0.005164   0.000013   0.583805  -0.030465   0.000002  -0.000001
    16  H    0.000013  -0.000186  -0.030465   0.573714  -0.000001  -0.000002
    17  H   -0.000001  -0.000062   0.000002  -0.000001   0.583805  -0.030465
    18  H   -0.000062   0.002242  -0.000001  -0.000002  -0.030465   0.573714
    19  H    0.000002  -0.000001  -0.000001  -0.000062   0.005164   0.000013
    20  H   -0.000001  -0.000002  -0.000062   0.002242   0.000013  -0.000186
             19         20
     1  C    0.004614  -0.005122
     2  C   -0.029201  -0.027471
     3  H   -0.000079  -0.000094
     4  H   -0.002880  -0.003724
     5  C   -0.000141  -0.000004
     6  C    0.000181   0.001976
     7  C   -0.005434   0.005174
     8  C    0.368659   0.370582
     9  H    0.000000  -0.000004
    10  H   -0.000041   0.000630
    11  H   -0.000207  -0.000055
    12  H   -0.032116  -0.032062
    13  H    0.000002  -0.000001
    14  H   -0.000001  -0.000002
    15  H   -0.000001  -0.000062
    16  H   -0.000062   0.002242
    17  H    0.005164   0.000013
    18  H    0.000013  -0.000186
    19  H    0.583805  -0.030465
    20  H   -0.030465   0.573714
 Mulliken atomic charges:
              1
     1  C   -0.054899
     2  C   -0.054899
     3  H    0.114639
     4  H    0.114639
     5  C   -0.450157
     6  C   -0.450157
     7  C   -0.450157
     8  C   -0.450157
     9  H    0.137176
    10  H    0.137176
    11  H    0.137176
    12  H    0.137176
    13  H    0.138190
    14  H    0.144922
    15  H    0.138190
    16  H    0.144922
    17  H    0.138190
    18  H    0.144922
    19  H    0.138190
    20  H    0.144922
 Sum of Mulliken atomic charges =   0.00000
 Mulliken charges with hydrogens summed into heavy atoms:
              1
     1  C    0.059740
     2  C    0.059740
     5  C   -0.029870
     6  C   -0.029870
     7  C   -0.029870
     8  C   -0.029870
 Sum of Mulliken charges with hydrogens summed into heavy atoms =   0.00000
 Electronic spatial extent (au):  <R**2>=            748.8607
 Charge=              0.0000 electrons
 Dipole moment (field-independent basis, Debye):
    X=              0.0000    Y=              0.0000    Z=              0.0000  Tot=              0.0000
 Quadrupole moment (field-independent basis, Debye-Ang):
   XX=            -41.2366   YY=            -41.7766   ZZ=            -42.0276
   XY=             -0.3323   XZ=              0.0000   YZ=              0.0000
 Traceless Quadrupole moment (field-independent basis, Debye-Ang):
   XX=              0.4437   YY=             -0.0963   ZZ=             -0.3473
   XY=             -0.3323   XZ=              0.0000   YZ=              0.0000
 Octapole moment (field-independent basis, Debye-Ang**2):
  XXX=              0.0000  YYY=              0.0000  ZZZ=              0.0000  XYY=              0.0000
  XXY=              0.0000  XXZ=              0.0000  XZZ=              0.0000  YZZ=              0.0000
  YYZ=              0.0000  XYZ=              0.0000
 Hexadecapole moment (field-independent basis, Debye-Ang**3):
 XXXX=            -99.0169 YYYY=           -536.0788 ZZZZ=           -387.5965 XXXY=            -24.6069
 XXXZ=              0.0000 YYYX=            -33.3029 YYYZ=              0.0000 ZZZX=              0.0000
 ZZZY=              0.0000 XXYY=           -109.8408 XXZZ=            -82.6226 YYZZ=           -163.3342
 XXYZ=              0.0000 YYXZ=              0.0000 ZZXY=            -10.6295
 N-N= 2.615124216991D+02 E-N=-1.069945968672D+03  KE= 2.346319711445D+02
 Symmetry AG   KE= 7.741096211941D+01
 Symmetry BG   KE= 4.154055170613D+01
 Symmetry AU   KE= 4.076767506685D+01
 Symmetry BU   KE= 7.491278225212D+01

 Test job not archived.
 1\1\GINC-TERMINUS\FOpt\RB3LYP\6-31G(d)\C6H14\FRODOX\05-Jan-2018\0\\#B3
 LYP/6-31G* fopt test\\IsomerC6H14/2,3-dimethyl-butane.xyz\\0,1\C,0.008
 0244818,0.7766953961,0.\C,-0.0080244818,-0.7766953961,0.\H,-1.04193837
 79,1.1123307527,0.\H,1.0419383779,-1.1123307527,0.\C,0.6844745358,1.35
 56885276,1.2544905326\C,0.6844745358,1.3556885276,-1.2544905326\C,-0.6
 844745358,-1.3556885276,1.2544905326\C,-0.6844745358,-1.3556885276,-1.
 2544905326\H,1.7197006564,0.9992105301,1.3419986445\H,1.7197006564,0.9
 992105301,-1.3419986445\H,-1.7197006564,-0.9992105301,1.3419986445\H,-
 1.7197006564,-0.9992105301,-1.3419986445\H,0.717465719,2.4504033108,1.
 2044021204\H,0.1589043277,1.0863411527,2.1755813924\H,0.717465719,2.45
 04033108,-1.2044021204\H,0.1589043277,1.0863411527,-2.1755813924\H,-0.
 717465719,-2.4504033108,1.2044021204\H,-0.1589043277,-1.0863411527,2.1
 755813924\H,-0.717465719,-2.4504033108,-1.2044021204\H,-0.1589043277,-
 1.0863411527,-2.1755813924\\Version=EM64L-G09RevB.01\State=1-AG\HF=-23
 7.082491\RMSD=7.008e-09\RMSF=3.458e-05\Dipole=0.,0.,0.\Quadrupole=0.14
 63869,0.1118592,-0.258246,-0.3178637,0.,0.\PG=C02H [SGH(C2H2),X(C4H12)
 ]\\@


 THE CHYMISTS ARE A STRANGE CLASS OF MORTALS IMPELLED
 BY AN ALMOST INSANE IMPULSE TO SEEK THEIR PLEASURE
 AMONG SMOKE AND VAPOR, SOOT AND FLAME, POISONS AND
 POVERTY; YET AMONG ALL THESE EVILS I SEEM TO LIVE
 SO SWEETLY, THAT I MAY DIE IF I WOULD CHANGE PLACES
 WITH THE PERSIAN KING.
   --  JOHANN JOACHIM BECHER, 1635-1682
 ACTA LABORATORII CHYMICA MONACENSIS, 1669
 Job cpu time:  0 days  0 hours  0 minutes 42.4 seconds.
 File lengths (MBytes):  RWF=     13 Int=      0 D2E=      0 Chk=      2 Scr=      1
 Normal termination of Gaussian 09 at Fri Jan  5 13:28:50 2018.
