 Entering Gaussian System, Link 0=g09
 Input=R-S-S-Fructuose.inp
 Output=R-S-S-Fructuose.log
 Initial command:
 /usr/local/g09/l1.exe /home/g09scr/Gau-13187.inp -scrdir=/home/g09scr/
 Entering Link 1 = /usr/local/g09/l1.exe PID=     13189.
  
 Copyright (c) 1988,1990,1992,1993,1995,1998,2003,2009,2010,
            Gaussian, Inc.  All Rights Reserved.
  
 This is part of the Gaussian(R) 09 program.  It is based on
 the Gaussian(R) 03 system (copyright 2003, Gaussian, Inc.),
 the Gaussian(R) 98 system (copyright 1998, Gaussian, Inc.),
 the Gaussian(R) 94 system (copyright 1995, Gaussian, Inc.),
 the Gaussian 92(TM) system (copyright 1992, Gaussian, Inc.),
 the Gaussian 90(TM) system (copyright 1990, Gaussian, Inc.),
 the Gaussian 88(TM) system (copyright 1988, Gaussian, Inc.),
 the Gaussian 86(TM) system (copyright 1986, Carnegie Mellon
 University), and the Gaussian 82(TM) system (copyright 1983,
 Carnegie Mellon University). Gaussian is a federally registered
 trademark of Gaussian, Inc.
  
 This software contains proprietary and confidential information,
 including trade secrets, belonging to Gaussian, Inc.
  
 This software is provided under written license and may be
 used, copied, transmitted, or stored only in accord with that
 written license.
  
 The following legend is applicable only to US Government
 contracts under FAR:
  
                    RESTRICTED RIGHTS LEGEND
  
 Use, reproduction and disclosure by the US Government is
 subject to restrictions as set forth in subparagraphs (a)
 and (c) of the Commercial Computer Software - Restricted
 Rights clause in FAR 52.227-19.
  
 Gaussian, Inc.
 340 Quinnipiac St., Bldg. 40, Wallingford CT 06492
  
  
 ---------------------------------------------------------------
 Warning -- This program may not be used in any manner that
 competes with the business of Gaussian, Inc. or will provide
 assistance to any competitor of Gaussian, Inc.  The licensee
 of this program is prohibited from giving any competitor of
 Gaussian, Inc. access to this program.  By using this program,
 the user acknowledges that Gaussian, Inc. is engaged in the
 business of creating and licensing software in the field of
 computational chemistry and represents and warrants to the
 licensee that it is not a competitor of Gaussian, Inc. and that
 it will not use this program in any manner prohibited above.
 ---------------------------------------------------------------
  

 Cite this work as:
 Gaussian 09, Revision B.01,
 M. J. Frisch, G. W. Trucks, H. B. Schlegel, G. E. Scuseria, 
 M. A. Robb, J. R. Cheeseman, G. Scalmani, V. Barone, B. Mennucci, 
 G. A. Petersson, H. Nakatsuji, M. Caricato, X. Li, H. P. Hratchian, 
 A. F. Izmaylov, J. Bloino, G. Zheng, J. L. Sonnenberg, M. Hada, 
 M. Ehara, K. Toyota, R. Fukuda, J. Hasegawa, M. Ishida, T. Nakajima, 
 Y. Honda, O. Kitao, H. Nakai, T. Vreven, J. A. Montgomery, Jr., 
 J. E. Peralta, F. Ogliaro, M. Bearpark, J. J. Heyd, E. Brothers, 
 K. N. Kudin, V. N. Staroverov, T. Keith, R. Kobayashi, J. Normand, 
 K. Raghavachari, A. Rendell, J. C. Burant, S. S. Iyengar, J. Tomasi, 
 M. Cossi, N. Rega, J. M. Millam, M. Klene, J. E. Knox, J. B. Cross, 
 V. Bakken, C. Adamo, J. Jaramillo, R. Gomperts, R. E. Stratmann, 
 O. Yazyev, A. J. Austin, R. Cammi, C. Pomelli, J. W. Ochterski, 
 R. L. Martin, K. Morokuma, V. G. Zakrzewski, G. A. Voth, 
 P. Salvador, J. J. Dannenberg, S. Dapprich, A. D. Daniels, 
 O. Farkas, J. B. Foresman, J. V. Ortiz, J. Cioslowski, 
 and D. J. Fox, Gaussian, Inc., Wallingford CT, 2010.
 
 ******************************************
 Gaussian 09:  EM64L-G09RevB.01 12-Aug-2010
                22-Jan-2018 
 ******************************************
 %nproc=4
 Will use up to    4 processors via shared memory.
 %mem=60gb
 ------------------------------
 #B3LYP/6-311G** fopt test freq
 ------------------------------
 1/14=-1,18=20,19=15,26=3,38=1/1,3;
 2/9=110,12=2,14=103,17=6,18=5,40=1/2;
 3/5=4,6=6,7=101,11=2,16=1,25=1,30=1,71=1,74=-5/1,2,3;
 4//1;
 5/5=2,38=5/2;
 6/7=2,8=2,9=2,10=2,28=1/1;
 7//1,2,3,16;
 1/14=-1,18=20,19=15/3(2);
 2/9=110/2;
 99//99;
 2/9=110/2;
 3/5=4,6=6,7=101,11=2,16=1,25=1,30=1,71=1,74=-5/1,2,3;
 4/5=5,16=3/1;
 5/5=2,38=5/2;
 7//1,2,3,16;
 1/14=-1,18=20,19=15/3(-5);
 2/9=110/2;
 6/7=2,8=2,9=2,10=2,19=2,28=1/1;
 99/9=1/99;
 --------------------------
 Sugars/R-S-S-Fructuose.xyz
 --------------------------
 Symbolic Z-matrix:
 Charge =  0 Multiplicity = 1
 C                     0.        0.        0. 
 O                     0.        0.        1.41352 
 H                     0.92749   0.        1.70592 
 H                     0.51803  -0.89725  -0.34815 
 H                     0.51786   0.89695  -0.34677 
 C                    -1.42147   0.       -0.52884 
 O                    -2.38889  -0.0311    0.23329 
 C                    -1.59838   0.00492  -2.04619 
 C                    -0.29803   0.04539  -2.86317 
 C                    -0.4755    0.02154  -4.39287 
 C                     0.86828   0.04202  -5.12195 
 H                     1.4567   -0.85196  -4.89019 
 H                     1.45026   0.93508  -4.87855 
 O                     0.62907   0.0516   -6.5257 
 H                     1.49772   0.05882  -6.96259 
 H                    -2.23088   0.86564  -2.28847 
 O                    -2.32272  -1.16099  -2.41868 
 H                    -3.17739  -0.87514  -2.78481 
 H                     0.31509   0.92124  -2.6144 
 O                     0.44258  -1.09678  -2.44321 
 H                     1.27832  -0.78635  -2.05615 
 H                    -0.89086  -0.93813  -4.72015 
 O                    -1.23294   1.15613  -4.81274 
 H                    -1.99454   0.83438  -5.32464 
 

 GradGradGradGradGradGradGradGradGradGradGradGradGradGradGradGradGradGrad
 Berny optimization.
 Initialization pass.
                           ----------------------------
                           !    Initial Parameters    !
                           ! (Angstroms and Degrees)  !
 --------------------------                            --------------------------
 ! Name  Definition              Value          Derivative Info.                !
 --------------------------------------------------------------------------------
 ! R1    R(1,2)                  1.4135         estimate D2E/DX2                !
 ! R2    R(1,4)                  1.093          estimate D2E/DX2                !
 ! R3    R(1,5)                  1.0922         estimate D2E/DX2                !
 ! R4    R(1,6)                  1.5167         estimate D2E/DX2                !
 ! R5    R(2,3)                  0.9725         estimate D2E/DX2                !
 ! R6    R(6,7)                  1.232          estimate D2E/DX2                !
 ! R7    R(6,8)                  1.5276         estimate D2E/DX2                !
 ! R8    R(8,9)                  1.5362         estimate D2E/DX2                !
 ! R9    R(8,16)                 1.0953         estimate D2E/DX2                !
 ! R10   R(8,17)                 1.4222         estimate D2E/DX2                !
 ! R11   R(9,10)                 1.5401         estimate D2E/DX2                !
 ! R12   R(9,19)                 1.0977         estimate D2E/DX2                !
 ! R13   R(9,20)                 1.4246         estimate D2E/DX2                !
 ! R14   R(10,11)                1.529          estimate D2E/DX2                !
 ! R15   R(10,22)                1.0957         estimate D2E/DX2                !
 ! R16   R(10,23)                1.4273         estimate D2E/DX2                !
 ! R17   R(11,12)                1.0951         estimate D2E/DX2                !
 ! R18   R(11,13)                1.0934         estimate D2E/DX2                !
 ! R19   R(11,14)                1.424          estimate D2E/DX2                !
 ! R20   R(14,15)                0.9724         estimate D2E/DX2                !
 ! R21   R(17,18)                0.9727         estimate D2E/DX2                !
 ! R22   R(20,21)                0.9719         estimate D2E/DX2                !
 ! R23   R(23,24)                0.9724         estimate D2E/DX2                !
 ! A1    A(2,1,4)              108.574          estimate D2E/DX2                !
 ! A2    A(2,1,5)              108.511          estimate D2E/DX2                !
 ! A3    A(2,1,6)              110.407          estimate D2E/DX2                !
 ! A4    A(4,1,5)              110.3838         estimate D2E/DX2                !
 ! A5    A(4,1,6)              109.4597         estimate D2E/DX2                !
 ! A6    A(5,1,6)              109.4917         estimate D2E/DX2                !
 ! A7    A(1,2,3)              107.498          estimate D2E/DX2                !
 ! A8    A(1,6,7)              121.351          estimate D2E/DX2                !
 ! A9    A(1,6,8)              117.057          estimate D2E/DX2                !
 ! A10   A(7,6,8)              121.5748         estimate D2E/DX2                !
 ! A11   A(6,8,9)              115.486          estimate D2E/DX2                !
 ! A12   A(6,8,16)             106.8055         estimate D2E/DX2                !
 ! A13   A(6,8,17)             108.4505         estimate D2E/DX2                !
 ! A14   A(9,8,16)             110.516          estimate D2E/DX2                !
 ! A15   A(9,8,17)             108.265          estimate D2E/DX2                !
 ! A16   A(16,8,17)            106.9882         estimate D2E/DX2                !
 ! A17   A(8,9,10)             115.484          estimate D2E/DX2                !
 ! A18   A(8,9,19)             111.9187         estimate D2E/DX2                !
 ! A19   A(8,9,20)             105.1981         estimate D2E/DX2                !
 ! A20   A(10,9,19)            107.567          estimate D2E/DX2                !
 ! A21   A(10,9,20)            109.894          estimate D2E/DX2                !
 ! A22   A(19,9,20)            106.4113         estimate D2E/DX2                !
 ! A23   A(9,10,11)            111.847          estimate D2E/DX2                !
 ! A24   A(9,10,22)            110.727          estimate D2E/DX2                !
 ! A25   A(9,10,23)            109.938          estimate D2E/DX2                !
 ! A26   A(11,10,22)           101.6812         estimate D2E/DX2                !
 ! A27   A(11,10,23)           108.3891         estimate D2E/DX2                !
 ! A28   A(22,10,23)           114.0276         estimate D2E/DX2                !
 ! A29   A(10,11,12)           111.125          estimate D2E/DX2                !
 ! A30   A(10,11,13)           111.8759         estimate D2E/DX2                !
 ! A31   A(10,11,14)           108.815          estimate D2E/DX2                !
 ! A32   A(12,11,13)           109.4922         estimate D2E/DX2                !
 ! A33   A(12,11,14)           107.7211         estimate D2E/DX2                !
 ! A34   A(13,11,14)           107.6593         estimate D2E/DX2                !
 ! A35   A(11,14,15)           107.0319         estimate D2E/DX2                !
 ! A36   A(8,17,18)            107.768          estimate D2E/DX2                !
 ! A37   A(9,20,21)            107.96           estimate D2E/DX2                !
 ! A38   A(10,23,24)           107.9061         estimate D2E/DX2                !
 ! D1    D(4,1,2,3)             60.0            estimate D2E/DX2                !
 ! D2    D(5,1,2,3)            -60.0            estimate D2E/DX2                !
 ! D3    D(6,1,2,3)            180.0            estimate D2E/DX2                !
 ! D4    D(2,1,6,7)             -1.694          estimate D2E/DX2                !
 ! D5    D(2,1,6,8)            179.793          estimate D2E/DX2                !
 ! D6    D(4,1,6,7)            117.7715         estimate D2E/DX2                !
 ! D7    D(4,1,6,8)            -60.7415         estimate D2E/DX2                !
 ! D8    D(5,1,6,7)           -121.102          estimate D2E/DX2                !
 ! D9    D(5,1,6,8)             60.385          estimate D2E/DX2                !
 ! D10   D(1,6,8,9)             -1.4906         estimate D2E/DX2                !
 ! D11   D(1,6,8,16)          -124.8258         estimate D2E/DX2                !
 ! D12   D(1,6,8,17)           120.1809         estimate D2E/DX2                !
 ! D13   D(7,6,8,9)            180.0            estimate D2E/DX2                !
 ! D14   D(7,6,8,16)            56.6647         estimate D2E/DX2                !
 ! D15   D(7,6,8,17)           -58.3286         estimate D2E/DX2                !
 ! D16   D(6,8,9,10)           178.812          estimate D2E/DX2                !
 ! D17   D(6,8,9,19)           -57.6707         estimate D2E/DX2                !
 ! D18   D(6,8,9,20)            57.4731         estimate D2E/DX2                !
 ! D19   D(16,8,9,10)          -59.8319         estimate D2E/DX2                !
 ! D20   D(16,8,9,19)           63.6854         estimate D2E/DX2                !
 ! D21   D(16,8,9,20)          178.8291         estimate D2E/DX2                !
 ! D22   D(17,8,9,10)           57.041          estimate D2E/DX2                !
 ! D23   D(17,8,9,19)         -179.4417         estimate D2E/DX2                !
 ! D24   D(17,8,9,20)          -64.298          estimate D2E/DX2                !
 ! D25   D(6,8,17,18)          114.8739         estimate D2E/DX2                !
 ! D26   D(9,8,17,18)         -119.126          estimate D2E/DX2                !
 ! D27   D(16,8,17,18)          -0.0001         estimate D2E/DX2                !
 ! D28   D(8,9,10,11)         -179.087          estimate D2E/DX2                !
 ! D29   D(8,9,10,22)          -66.447          estimate D2E/DX2                !
 ! D30   D(8,9,10,23)           60.45           estimate D2E/DX2                !
 ! D31   D(19,9,10,11)          55.1349         estimate D2E/DX2                !
 ! D32   D(19,9,10,22)         167.775          estimate D2E/DX2                !
 ! D33   D(19,9,10,23)         -65.3281         estimate D2E/DX2                !
 ! D34   D(20,9,10,11)         -60.315          estimate D2E/DX2                !
 ! D35   D(20,9,10,22)          52.325          estimate D2E/DX2                !
 ! D36   D(20,9,10,23)         179.222          estimate D2E/DX2                !
 ! D37   D(8,9,20,21)         -118.8985         estimate D2E/DX2                !
 ! D38   D(10,9,20,21)         116.1799         estimate D2E/DX2                !
 ! D39   D(19,9,20,21)           0.0            estimate D2E/DX2                !
 ! D40   D(9,10,11,12)          62.961          estimate D2E/DX2                !
 ! D41   D(9,10,11,13)         -59.764          estimate D2E/DX2                !
 ! D42   D(9,10,11,14)        -178.59           estimate D2E/DX2                !
 ! D43   D(22,10,11,12)        -55.2198         estimate D2E/DX2                !
 ! D44   D(22,10,11,13)       -177.9447         estimate D2E/DX2                !
 ! D45   D(22,10,11,14)         63.2292         estimate D2E/DX2                !
 ! D46   D(23,10,11,12)       -175.677          estimate D2E/DX2                !
 ! D47   D(23,10,11,13)         61.598          estimate D2E/DX2                !
 ! D48   D(23,10,11,14)        -57.228          estimate D2E/DX2                !
 ! D49   D(9,10,23,24)        -125.0235         estimate D2E/DX2                !
 ! D50   D(11,10,23,24)        112.4458         estimate D2E/DX2                !
 ! D51   D(22,10,23,24)          0.0            estimate D2E/DX2                !
 ! D52   D(10,11,14,15)       -179.647          estimate D2E/DX2                !
 ! D53   D(12,11,14,15)        -59.077          estimate D2E/DX2                !
 ! D54   D(13,11,14,15)         58.9155         estimate D2E/DX2                !
 --------------------------------------------------------------------------------
 Trust Radius=3.00D-01 FncErr=1.00D-07 GrdErr=1.00D-06
 Number of steps in this run=    125 maximum allowed number of steps=    144.
 GradGradGradGradGradGradGradGradGradGradGradGradGradGradGradGradGradGrad

                          Input orientation:                          
 ---------------------------------------------------------------------
 Center     Atomic      Atomic             Coordinates (Angstroms)
 Number     Number       Type             X           Y           Z
 ---------------------------------------------------------------------
      1          6           0        0.000000    0.000000    0.000000
      2          8           0        0.000000    0.000000    1.413516
      3          1           0        0.927487    0.000000    1.705916
      4          1           0        0.518025   -0.897246   -0.348146
      5          1           0        0.517855    0.896952   -0.346765
      6          6           0       -1.421472    0.000000   -0.528838
      7          8           0       -2.388894   -0.031101    0.233292
      8          6           0       -1.598381    0.004915   -2.046186
      9          6           0       -0.298033    0.045392   -2.863171
     10          6           0       -0.475503    0.021535   -4.392866
     11          6           0        0.868280    0.042020   -5.121945
     12          1           0        1.456696   -0.851959   -4.890189
     13          1           0        1.450260    0.935079   -4.878545
     14          8           0        0.629072    0.051603   -6.525700
     15          1           0        1.497715    0.058819   -6.962591
     16          1           0       -2.230879    0.865635   -2.288466
     17          8           0       -2.322721   -1.160985   -2.418677
     18          1           0       -3.177394   -0.875136   -2.784805
     19          1           0        0.315092    0.921242   -2.614396
     20          8           0        0.442584   -1.096782   -2.443213
     21          1           0        1.278324   -0.786348   -2.056148
     22          1           0       -0.890860   -0.938129   -4.720149
     23          8           0       -1.232935    1.156129   -4.812737
     24          1           0       -1.994538    0.834382   -5.324640
 ---------------------------------------------------------------------
                    Distance matrix (angstroms):
                    1          2          3          4          5
     1  C    0.000000
     2  O    1.413516   0.000000
     3  H    1.941747   0.972486   0.000000
     4  H    1.092980   2.043735   2.278570   0.000000
     5  H    1.092219   2.042373   2.277240   1.794199   0.000000
     6  C    1.516658   2.406932   3.242180   2.144609   2.144449
     7  O    2.400460   2.664716   3.628770   3.088439   3.105952
     8  C    2.596483   3.811087   4.523086   2.859442   2.856959
     9  C    2.878998   4.287299   4.730805   2.807110   2.779051
    10  C    4.418579   5.825859   6.258114   4.265093   4.257235
    11  C    5.195190   6.593021   6.828247   4.877915   4.863749
    12  H    5.173176   6.525680   6.671919   4.638244   4.958106
    13  H    5.174730   6.524390   6.671041   4.975037   4.626863
    14  O    6.556154   7.964267   8.237185   6.250985   6.237485
    15  H    7.122098   8.509158   8.687441   6.754608   6.740308
    16  H    3.311076   4.408040   5.165238   3.798561   3.365520
    17  O    3.548650   4.629106   5.378104   3.525123   4.073917
    18  H    4.314723   5.337377   6.146746   4.426502   4.768564
    19  H    2.789809   4.143917   4.459687   2.912725   2.276808
    20  O    2.714425   4.034002   4.318950   2.105899   2.894086
    21  H    2.545624   3.780347   3.859346   1.872865   2.516705
    22  H    4.894234   6.268617   6.743944   4.593587   4.947574
    23  O    5.100902   6.451588   6.963971   5.216779   4.803888
    24  H    5.746840   7.076519   7.659187   5.837551   5.576314
                    6          7          8          9         10
     6  C    0.000000
     7  O    1.231956   0.000000
     8  C    1.527634   2.412929   0.000000
     9  C    2.591001   3.737062   1.536232   0.000000
    10  C    3.978195   5.006513   2.601545   1.540140   0.000000
    11  C    5.132384   6.268420   3.942853   2.542117   1.528963
    12  H    5.294437   6.458516   4.260995   2.827210   2.178007
    13  H    5.295391   6.465561   4.263997   2.812437   2.186095
    14  O    6.337961   7.402630   5.002976   3.778053   2.402076
    15  H    7.065288   8.178909   5.810314   4.475504   3.240134
    16  H    2.121498   2.681113   1.095259   2.176919   2.867464
    17  O    2.394082   2.883393   1.422231   2.398392   2.950930
    18  H    2.989734   3.231569   1.952775   3.023943   3.269571
    19  H    2.865989   4.040770   2.196337   1.097691   2.144171
    20  O    2.888333   4.039384   2.353063   1.424584   2.427893
    21  H    3.199987   4.388670   2.983560   1.956522   3.031309
    22  H    4.327669   5.253892   2.922327   2.183375   1.095715
    23  O    4.441168   5.311136   3.018716   2.430758   1.427340
    24  H    4.901460   5.638722   3.404881   3.091838   1.958671
                   11         12         13         14         15
    11  C    0.000000
    12  H    1.095054   0.000000
    13  H    1.093389   1.787088   0.000000
    14  O    1.424023   2.043595   2.041568   0.000000
    15  H    1.945366   2.264078   2.261268   0.972351   0.000000
    16  H    4.279221   4.828799   4.501568   5.176497   6.033308
    17  O    4.351708   4.526352   4.967879   5.201066   6.060595
    18  H    4.761394   5.089987   5.392199   5.416856   6.338991
    19  H    2.714194   3.102698   2.532818   4.019099   4.587937
    20  O    2.941716   2.660085   3.327869   4.245028   4.782624
    21  H    3.202099   2.840407   3.310407   4.593537   4.983535
    22  H    2.053462   2.355283   3.002472   2.559253   3.424579
    23  O    2.398323   3.357459   2.693089   2.760668   3.644504
    24  H    2.977356   3.865684   3.475021   2.989752   3.934490
                   16         17         18         19         20
    16  H    0.000000
    17  O    2.032874   0.000000
    18  H    2.042676   0.972741   0.000000
    19  H    2.567351   3.366308   3.931090   0.000000
    20  O    3.320005   2.766159   3.642808   2.029280   0.000000
    21  H    3.885553   3.638586   4.515778   2.038460   0.971931
    22  H    3.310936   2.719681   2.996291   3.057086   2.643422
    23  O    2.729876   3.505449   3.466910   2.698937   3.673910
    24  H    3.045519   3.540313   3.282128   3.561932   4.239290
                   21         22         23         24
    21  H    0.000000
    22  H    3.438793   0.000000
    23  O    4.204572   2.124030   0.000000
    24  H    4.901166   2.173778   0.972422   0.000000
 Stoichiometry    C6H12O6
 Framework group  C1[X(C6H12O6)]
 Deg. of freedom    66
 Full point group                 C1      NOp   1
 Largest Abelian subgroup         C1      NOp   1
 Largest concise Abelian subgroup C1      NOp   1
                         Standard orientation:                         
 ---------------------------------------------------------------------
 Center     Atomic      Atomic             Coordinates (Angstroms)
 Number     Number       Type             X           Y           Z
 ---------------------------------------------------------------------
      1          6           0        2.360974   -1.031549   -0.236006
      2          8           0        3.749284   -1.285322   -0.314894
      3          1           0        3.868506   -2.249690   -0.353746
      4          1           0        1.970543   -1.508828    0.666422
      5          1           0        1.881307   -1.447962   -1.124523
      6          6           0        2.098989    0.460937   -0.171957
      7          8           0        3.024295    1.274189   -0.159945
      8          6           0        0.640488    0.907448   -0.087881
      9          6           0       -0.399460   -0.222958   -0.114278
     10          6           0       -1.868533    0.225345   -0.000781
     11          6           0       -2.828998   -0.964227   -0.013185
     12          1           0       -2.662781   -1.614712    0.851907
     13          1           0       -2.740441   -1.549772   -0.932311
     14          8           0       -4.164886   -0.476700    0.061405
     15          1           0       -4.751658   -1.252038    0.057482
     16          1           0        0.473597    1.602033   -0.918117
     17          8           0        0.464703    1.646865    1.114243
     18          1           0        0.245444    2.562592    0.870122
     19          1           0       -0.310394   -0.840673   -1.017284
     20          8           0       -0.063423   -1.065301    0.984347
     21          1           0        0.149711   -1.945918    0.632582
     22          1           0       -2.066288    0.659869    0.985460
     23          8           0       -2.201056    1.083946   -1.091437
     24          1           0       -2.549656    1.913702   -0.723214
 ---------------------------------------------------------------------
 Rotational constants (GHZ):      1.8480208      0.4468551      0.3970147
 Standard basis: 6-311G(d,p) (5D, 7F)
 There are   288 symmetry adapted basis functions of A   symmetry.
 Integral buffers will be    131072 words long.
 Raffenetti 2 integral format.
 Two-electron integral symmetry is turned on.
   288 basis functions,   480 primitive gaussians,   300 cartesian basis functions
    48 alpha electrons       48 beta electrons
       nuclear repulsion energy       781.3521379222 Hartrees.
 NAtoms=   24 NActive=   24 NUniq=   24 SFac= 1.00D+00 NAtFMM=   50 NAOKFM=F Big=F
 One-electron integrals computed using PRISM.
 NBasis=   288 RedAO= T  NBF=   288
 NBsUse=   288 1.00D-06 NBFU=   288
 Harris functional with IExCor=  402 diagonalized for initial guess.
 ExpMin= 1.03D-01 ExpMax= 8.59D+03 ExpMxC= 1.30D+03 IAcc=1 IRadAn=         1 AccDes= 0.00D+00
 HarFok:  IExCor=  402 AccDes= 0.00D+00 IRadAn=         1 IDoV= 1
 ScaDFX=  1.000000  1.000000  1.000000  1.000000
 FoFCou: FMM=F IPFlag=           0 FMFlag=      100000 FMFlg1=           0
         NFxFlg=           0 DoJE=T BraDBF=F KetDBF=T FulRan=T
         Omega=  0.000000  0.000000  1.000000  0.000000  0.000000 ICntrl=     500 IOpCl=  0
         NMat0=    1 NMatS0=    1 NMatT0=    0 NMatD0=    1 NMtDS0=    0 NMtDT0=    0
         I1Cent=           4 NGrid=           0.
 Petite list used in FoFCou.
 Initial guess orbital symmetries:
       Occupied  (A) (A) (A) (A) (A) (A) (A) (A) (A) (A) (A) (A)
                 (A) (A) (A) (A) (A) (A) (A) (A) (A) (A) (A) (A)
                 (A) (A) (A) (A) (A) (A) (A) (A) (A) (A) (A) (A)
                 (A) (A) (A) (A) (A) (A) (A) (A) (A) (A) (A) (A)
       Virtual   (A) (A) (A) (A) (A) (A) (A) (A) (A) (A) (A) (A)
                 (A) (A) (A) (A) (A) (A) (A) (A) (A) (A) (A) (A)
                 (A) (A) (A) (A) (A) (A) (A) (A) (A) (A) (A) (A)
                 (A) (A) (A) (A) (A) (A) (A) (A) (A) (A) (A) (A)
                 (A) (A) (A) (A) (A) (A) (A) (A) (A) (A) (A) (A)
                 (A) (A) (A) (A) (A) (A) (A) (A) (A) (A) (A) (A)
                 (A) (A) (A) (A) (A) (A) (A) (A) (A) (A) (A) (A)
                 (A) (A) (A) (A) (A) (A) (A) (A) (A) (A) (A) (A)
                 (A) (A) (A) (A) (A) (A) (A) (A) (A) (A) (A) (A)
                 (A) (A) (A) (A) (A) (A) (A) (A) (A) (A) (A) (A)
                 (A) (A) (A) (A) (A) (A) (A) (A) (A) (A) (A) (A)
                 (A) (A) (A) (A) (A) (A) (A) (A) (A) (A) (A) (A)
                 (A) (A) (A) (A) (A) (A) (A) (A) (A) (A) (A) (A)
                 (A) (A) (A) (A) (A) (A) (A) (A) (A) (A) (A) (A)
                 (A) (A) (A) (A) (A) (A) (A) (A) (A) (A) (A) (A)
                 (A) (A) (A) (A) (A) (A) (A) (A) (A) (A) (A) (A)
                 (A) (A) (A) (A) (A) (A) (A) (A) (A) (A) (A) (A)
                 (A) (A) (A) (A) (A) (A) (A) (A) (A) (A) (A) (A)
                 (A) (A) (A) (A) (A) (A) (A) (A) (A) (A) (A) (A)
                 (A) (A) (A) (A) (A) (A) (A) (A) (A) (A) (A) (A)
 The electronic state of the initial guess is 1-A.
 Requested convergence on RMS density matrix=1.00D-08 within 128 cycles.
 Requested convergence on MAX density matrix=1.00D-06.
 Requested convergence on             energy=1.00D-06.
 No special actions if energy rises.
 Keep R1 ints in memory in canonical form, NReq=1033417440.
 Integral accuracy reduced to 1.0D-05 until final iterations.
 Initial convergence to 1.0D-05 achieved.  Increase integral accuracy.
 SCF Done:  E(RB3LYP) =  -687.318462976     A.U. after   14 cycles
             Convg  =    0.6010D-08             -V/T =  2.0030

 **********************************************************************

            Population analysis using the SCF density.

 **********************************************************************

 Orbital symmetries:
       Occupied  (A) (A) (A) (A) (A) (A) (A) (A) (A) (A) (A) (A)
                 (A) (A) (A) (A) (A) (A) (A) (A) (A) (A) (A) (A)
                 (A) (A) (A) (A) (A) (A) (A) (A) (A) (A) (A) (A)
                 (A) (A) (A) (A) (A) (A) (A) (A) (A) (A) (A) (A)
       Virtual   (A) (A) (A) (A) (A) (A) (A) (A) (A) (A) (A) (A)
                 (A) (A) (A) (A) (A) (A) (A) (A) (A) (A) (A) (A)
                 (A) (A) (A) (A) (A) (A) (A) (A) (A) (A) (A) (A)
                 (A) (A) (A) (A) (A) (A) (A) (A) (A) (A) (A) (A)
                 (A) (A) (A) (A) (A) (A) (A) (A) (A) (A) (A) (A)
                 (A) (A) (A) (A) (A) (A) (A) (A) (A) (A) (A) (A)
                 (A) (A) (A) (A) (A) (A) (A) (A) (A) (A) (A) (A)
                 (A) (A) (A) (A) (A) (A) (A) (A) (A) (A) (A) (A)
                 (A) (A) (A) (A) (A) (A) (A) (A) (A) (A) (A) (A)
                 (A) (A) (A) (A) (A) (A) (A) (A) (A) (A) (A) (A)
                 (A) (A) (A) (A) (A) (A) (A) (A) (A) (A) (A) (A)
                 (A) (A) (A) (A) (A) (A) (A) (A) (A) (A) (A) (A)
                 (A) (A) (A) (A) (A) (A) (A) (A) (A) (A) (A) (A)
                 (A) (A) (A) (A) (A) (A) (A) (A) (A) (A) (A) (A)
                 (A) (A) (A) (A) (A) (A) (A) (A) (A) (A) (A) (A)
                 (A) (A) (A) (A) (A) (A) (A) (A) (A) (A) (A) (A)
                 (A) (A) (A) (A) (A) (A) (A) (A) (A) (A) (A) (A)
                 (A) (A) (A) (A) (A) (A) (A) (A) (A) (A) (A) (A)
                 (A) (A) (A) (A) (A) (A) (A) (A) (A) (A) (A) (A)
                 (A) (A) (A) (A) (A) (A) (A) (A) (A) (A) (A) (A)
 The electronic state is 1-A.
 Alpha  occ. eigenvalues --  -19.13670 -19.12865 -19.12752 -19.11698 -19.11528
 Alpha  occ. eigenvalues --  -19.11319 -10.26422 -10.24280 -10.23827 -10.23331
 Alpha  occ. eigenvalues --  -10.23022 -10.21870  -1.06046  -1.04486  -1.03676
 Alpha  occ. eigenvalues --   -1.02983  -1.01627  -1.01527  -0.78926  -0.76006
 Alpha  occ. eigenvalues --   -0.71462  -0.65542  -0.59525  -0.57509  -0.54824
 Alpha  occ. eigenvalues --   -0.53602  -0.53154  -0.52110  -0.50074  -0.48731
 Alpha  occ. eigenvalues --   -0.47761  -0.45288  -0.44478  -0.43339  -0.42066
 Alpha  occ. eigenvalues --   -0.41113  -0.37244  -0.36779  -0.35726  -0.35424
 Alpha  occ. eigenvalues --   -0.34397  -0.33252  -0.32163  -0.29896  -0.28533
 Alpha  occ. eigenvalues --   -0.27623  -0.26956  -0.25087
 Alpha virt. eigenvalues --   -0.03931   0.00127   0.01608   0.03045   0.03265
 Alpha virt. eigenvalues --    0.05837   0.06533   0.08904   0.10113   0.10371
 Alpha virt. eigenvalues --    0.11970   0.12615   0.14068   0.15981   0.17341
 Alpha virt. eigenvalues --    0.17465   0.20243   0.21027   0.21965   0.24640
 Alpha virt. eigenvalues --    0.25944   0.28092   0.29808   0.32093   0.35445
 Alpha virt. eigenvalues --    0.36257   0.37704   0.38327   0.38857   0.39445
 Alpha virt. eigenvalues --    0.40918   0.42291   0.43577   0.45838   0.46546
 Alpha virt. eigenvalues --    0.47160   0.48108   0.49092   0.50174   0.50992
 Alpha virt. eigenvalues --    0.52324   0.53168   0.55423   0.55906   0.56522
 Alpha virt. eigenvalues --    0.57439   0.59280   0.59738   0.62036   0.62844
 Alpha virt. eigenvalues --    0.63631   0.64625   0.66529   0.68720   0.70856
 Alpha virt. eigenvalues --    0.73839   0.76993   0.78312   0.79149   0.80452
 Alpha virt. eigenvalues --    0.81940   0.83421   0.84769   0.85592   0.86905
 Alpha virt. eigenvalues --    0.87473   0.89533   0.91241   0.92095   0.93519
 Alpha virt. eigenvalues --    0.94956   0.95747   1.00260   1.03329   1.04388
 Alpha virt. eigenvalues --    1.06678   1.08402   1.09347   1.13624   1.17790
 Alpha virt. eigenvalues --    1.20122   1.21770   1.23097   1.30568   1.32586
 Alpha virt. eigenvalues --    1.33217   1.33787   1.36076   1.37641   1.38497
 Alpha virt. eigenvalues --    1.39309   1.40378   1.41139   1.44163   1.45205
 Alpha virt. eigenvalues --    1.45669   1.46680   1.48147   1.49079   1.51548
 Alpha virt. eigenvalues --    1.52320   1.53018   1.54693   1.57308   1.58242
 Alpha virt. eigenvalues --    1.58570   1.60502   1.61118   1.62570   1.64173
 Alpha virt. eigenvalues --    1.65131   1.66254   1.68252   1.71298   1.72408
 Alpha virt. eigenvalues --    1.75776   1.77062   1.77464   1.81330   1.83676
 Alpha virt. eigenvalues --    1.86931   1.88771   1.91858   1.92977   1.93710
 Alpha virt. eigenvalues --    1.94686   1.96073   1.96404   1.99312   2.00028
 Alpha virt. eigenvalues --    2.02653   2.04482   2.06473   2.08184   2.10286
 Alpha virt. eigenvalues --    2.13046   2.13624   2.18720   2.21192   2.23319
 Alpha virt. eigenvalues --    2.25701   2.30126   2.35075   2.36166   2.39227
 Alpha virt. eigenvalues --    2.40755   2.41933   2.44747   2.45951   2.49040
 Alpha virt. eigenvalues --    2.50729   2.51277   2.52035   2.54729   2.59123
 Alpha virt. eigenvalues --    2.60034   2.68427   2.70406   2.71868   2.73757
 Alpha virt. eigenvalues --    2.77870   2.80973   2.83909   2.85983   2.88471
 Alpha virt. eigenvalues --    2.88958   2.91466   2.93409   2.93929   2.97235
 Alpha virt. eigenvalues --    3.00698   3.03462   3.07329   3.09259   3.10488
 Alpha virt. eigenvalues --    3.10974   3.11847   3.14967   3.16622   3.17681
 Alpha virt. eigenvalues --    3.19212   3.20592   3.21295   3.23603   3.25690
 Alpha virt. eigenvalues --    3.28956   3.29955   3.30716   3.32139   3.33287
 Alpha virt. eigenvalues --    3.43967   3.48954   3.58442   3.72588   3.75191
 Alpha virt. eigenvalues --    3.77945   3.78713   3.81405   3.81659   3.83530
 Alpha virt. eigenvalues --    3.88138   3.88761   3.91147   3.91901   3.92530
 Alpha virt. eigenvalues --    4.02085   4.04004   4.08242   4.20599   4.34718
 Alpha virt. eigenvalues --    4.83811   4.86411   4.90846   4.93470   4.95435
 Alpha virt. eigenvalues --    5.02106   5.04572   5.22940   5.25535   5.26589
 Alpha virt. eigenvalues --    5.27773   5.29712   5.56159   5.58588   5.61299
 Alpha virt. eigenvalues --    5.62400   5.65257   5.66212  23.68381  23.75611
 Alpha virt. eigenvalues --   23.77374  23.79242  23.79738  23.82703  49.86326
 Alpha virt. eigenvalues --   49.87454  49.90003  49.90824  49.91768  49.96437
          Condensed to atoms (all electrons):
              1          2          3          4          5          6
     1  C    5.063248   0.257201  -0.034439   0.393553   0.371608   0.191024
     2  O    0.257201   7.912309   0.302822  -0.023265  -0.030669  -0.038220
     3  H   -0.034439   0.302822   0.499823  -0.003985  -0.006786   0.010468
     4  H    0.393553  -0.023265  -0.003985   0.554141  -0.030302  -0.049736
     5  H    0.371608  -0.030669  -0.006786  -0.030302   0.616612  -0.038364
     6  C    0.191024  -0.038220   0.010468  -0.049736  -0.038364   4.966937
     7  O   -0.090328   0.004131  -0.000071   0.000611   0.001841   0.653141
     8  C   -0.121795   0.002454  -0.000634   0.012534   0.006006   0.206868
     9  C    0.006682  -0.000071   0.000032  -0.016326   0.001957  -0.056953
    10  C   -0.000130   0.000000  -0.000005   0.001245   0.000980   0.004489
    11  C   -0.000028   0.000000   0.000000  -0.000268  -0.000026   0.000188
    12  H   -0.000002   0.000000   0.000000  -0.000078   0.000012  -0.000016
    13  H    0.000009   0.000000   0.000000   0.000004  -0.000103  -0.000011
    14  O    0.000000   0.000000   0.000000   0.000000   0.000000   0.000000
    15  H    0.000000   0.000000   0.000000   0.000000   0.000000   0.000000
    16  H    0.010434  -0.000080   0.000036   0.000847  -0.002144  -0.025621
    17  O    0.003554  -0.000008   0.000010   0.000719   0.000035  -0.047265
    18  H   -0.000222   0.000004  -0.000001  -0.000158   0.000013   0.001630
    19  H   -0.007061  -0.000230  -0.000042   0.002312   0.005079   0.003974
    20  O   -0.012375   0.000313  -0.000058   0.027316  -0.002090  -0.003950
    21  H    0.008157  -0.000711  -0.000144  -0.004588  -0.000692  -0.002165
    22  H   -0.000178   0.000000   0.000000   0.000191  -0.000045   0.000909
    23  O   -0.000031   0.000000   0.000000  -0.000031  -0.000042   0.000497
    24  H   -0.000001   0.000000   0.000000   0.000005   0.000007   0.000033
              7          8          9         10         11         12
     1  C   -0.090328  -0.121795   0.006682  -0.000130  -0.000028  -0.000002
     2  O    0.004131   0.002454  -0.000071   0.000000   0.000000   0.000000
     3  H   -0.000071  -0.000634   0.000032  -0.000005   0.000000   0.000000
     4  H    0.000611   0.012534  -0.016326   0.001245  -0.000268  -0.000078
     5  H    0.001841   0.006006   0.001957   0.000980  -0.000026   0.000012
     6  C    0.653141   0.206868  -0.056953   0.004489   0.000188  -0.000016
     7  O    7.778740  -0.073583   0.004725  -0.000136   0.000001   0.000000
     8  C   -0.073583   5.302365   0.146465  -0.020067   0.010030  -0.000292
     9  C    0.004725   0.146465   5.566232   0.107381  -0.066590   0.003456
    10  C   -0.000136  -0.020067   0.107381   5.207774   0.304676  -0.041643
    11  C    0.000001   0.010030  -0.066590   0.304676   4.810490   0.389101
    12  H    0.000000  -0.000292   0.003456  -0.041643   0.389101   0.627631
    13  H    0.000000  -0.000906   0.001622  -0.044960   0.377056  -0.047683
    14  O    0.000000  -0.000052   0.003150  -0.051851   0.281740  -0.037902
    15  H    0.000000   0.000020  -0.000721   0.009979  -0.034787  -0.005442
    16  H    0.002938   0.371193  -0.044144  -0.006988   0.000823  -0.000088
    17  O    0.000692   0.254047  -0.093631   0.015092   0.000017  -0.000078
    18  H    0.001766  -0.023018   0.006469   0.002002   0.000098  -0.000010
    19  H    0.000014  -0.055215   0.383643  -0.027036  -0.015103   0.000107
    20  O   -0.000052  -0.058446   0.182688  -0.037143   0.004158   0.012934
    21  H    0.000076   0.015826  -0.025312  -0.003149   0.002397   0.001932
    22  H   -0.000012  -0.014009  -0.038554   0.371685  -0.049655  -0.009781
    23  O    0.000000   0.011229  -0.067039   0.236478  -0.050985   0.005435
    24  H   -0.000002   0.001706   0.004534  -0.029682   0.003736  -0.000298
             13         14         15         16         17         18
     1  C    0.000009   0.000000   0.000000   0.010434   0.003554  -0.000222
     2  O    0.000000   0.000000   0.000000  -0.000080  -0.000008   0.000004
     3  H    0.000000   0.000000   0.000000   0.000036   0.000010  -0.000001
     4  H    0.000004   0.000000   0.000000   0.000847   0.000719  -0.000158
     5  H   -0.000103   0.000000   0.000000  -0.002144   0.000035   0.000013
     6  C   -0.000011   0.000000   0.000000  -0.025621  -0.047265   0.001630
     7  O    0.000000   0.000000   0.000000   0.002938   0.000692   0.001766
     8  C   -0.000906  -0.000052   0.000020   0.371193   0.254047  -0.023018
     9  C    0.001622   0.003150  -0.000721  -0.044144  -0.093631   0.006469
    10  C   -0.044960  -0.051851   0.009979  -0.006988   0.015092   0.002002
    11  C    0.377056   0.281740  -0.034787   0.000823   0.000017   0.000098
    12  H   -0.047683  -0.037902  -0.005442  -0.000088  -0.000078  -0.000010
    13  H    0.655657  -0.036899  -0.006436  -0.000060  -0.000024  -0.000001
    14  O   -0.036899   7.926958   0.308823  -0.000008   0.000001  -0.000002
    15  H   -0.006436   0.308823   0.491046   0.000001  -0.000001   0.000001
    16  H   -0.000060  -0.000008   0.000001   0.569788  -0.022590  -0.018983
    17  O   -0.000024   0.000001  -0.000001  -0.022590   7.945228   0.308896
    18  H   -0.000001  -0.000002   0.000001  -0.018983   0.308896   0.471192
    19  H    0.009800  -0.000304  -0.000047   0.002144   0.004125  -0.000745
    20  O   -0.000529   0.000026   0.000011   0.004755   0.002422  -0.000320
    21  H   -0.000357  -0.000030  -0.000008  -0.001197  -0.000652   0.000075
    22  H    0.013561   0.008451  -0.000745   0.001558   0.015799  -0.001526
    23  O    0.001233   0.003477  -0.000055   0.016350  -0.000603   0.000437
    24  H   -0.001033   0.003157  -0.000034  -0.000969   0.000366   0.000571
             19         20         21         22         23         24
     1  C   -0.007061  -0.012375   0.008157  -0.000178  -0.000031  -0.000001
     2  O   -0.000230   0.000313  -0.000711   0.000000   0.000000   0.000000
     3  H   -0.000042  -0.000058  -0.000144   0.000000   0.000000   0.000000
     4  H    0.002312   0.027316  -0.004588   0.000191  -0.000031   0.000005
     5  H    0.005079  -0.002090  -0.000692  -0.000045  -0.000042   0.000007
     6  C    0.003974  -0.003950  -0.002165   0.000909   0.000497   0.000033
     7  O    0.000014  -0.000052   0.000076  -0.000012   0.000000  -0.000002
     8  C   -0.055215  -0.058446   0.015826  -0.014009   0.011229   0.001706
     9  C    0.383643   0.182688  -0.025312  -0.038554  -0.067039   0.004534
    10  C   -0.027036  -0.037143  -0.003149   0.371685   0.236478  -0.029682
    11  C   -0.015103   0.004158   0.002397  -0.049655  -0.050985   0.003736
    12  H    0.000107   0.012934   0.001932  -0.009781   0.005435  -0.000298
    13  H    0.009800  -0.000529  -0.000357   0.013561   0.001233  -0.001033
    14  O   -0.000304   0.000026  -0.000030   0.008451   0.003477   0.003157
    15  H   -0.000047   0.000011  -0.000008  -0.000745  -0.000055  -0.000034
    16  H    0.002144   0.004755  -0.001197   0.001558   0.016350  -0.000969
    17  O    0.004125   0.002422  -0.000652   0.015799  -0.000603   0.000366
    18  H   -0.000745  -0.000320   0.000075  -0.001526   0.000437   0.000571
    19  H    0.619069  -0.032939  -0.024299   0.013345   0.004438  -0.001159
    20  O   -0.032939   8.004672   0.297430   0.003522   0.001341  -0.000220
    21  H   -0.024299   0.297430   0.502860  -0.001618   0.000050   0.000013
    22  H    0.013345   0.003522  -0.001618   0.600807  -0.027499  -0.015370
    23  O    0.004438   0.001341   0.000050  -0.027499   7.954074   0.313785
    24  H   -0.001159  -0.000220   0.000013  -0.015370   0.313785   0.466023
 Mulliken atomic charges:
              1
     1  C   -0.038878
     2  O   -0.385980
     3  H    0.232973
     4  H    0.135262
     5  H    0.107112
     6  C    0.222143
     7  O   -0.284491
     8  C    0.027273
     9  C   -0.009696
    10  C    0.001010
    11  C    0.032932
    12  H    0.102706
    13  H    0.080056
    14  O   -0.408736
    15  H    0.238396
    16  H    0.142005
    17  O   -0.386151
    18  H    0.251835
    19  H    0.116131
    20  O   -0.393466
    21  H    0.236108
    22  H    0.129165
    23  O   -0.402540
    24  H    0.254831
 Sum of Mulliken atomic charges =   0.00000
 Mulliken charges with hydrogens summed into heavy atoms:
              1
     1  C    0.203496
     2  O   -0.153007
     6  C    0.222143
     7  O   -0.284491
     8  C    0.169278
     9  C    0.106436
    10  C    0.130175
    11  C    0.215694
    14  O   -0.170340
    17  O   -0.134316
    20  O   -0.157358
    23  O   -0.147709
 Sum of Mulliken charges with hydrogens summed into heavy atoms =   0.00000
 Electronic spatial extent (au):  <R**2>=           2749.8894
 Charge=              0.0000 electrons
 Dipole moment (field-independent basis, Debye):
    X=             -3.4563    Y=             -3.5646    Z=             -1.1156  Tot=              5.0889
 Quadrupole moment (field-independent basis, Debye-Ang):
   XX=            -85.0908   YY=            -52.2153   ZZ=            -76.7741
   XY=             -6.9807   XZ=             -2.9270   YZ=              1.4034
 Traceless Quadrupole moment (field-independent basis, Debye-Ang):
   XX=            -13.7307   YY=             19.1448   ZZ=             -5.4140
   XY=             -6.9807   XZ=             -2.9270   YZ=              1.4034
 Octapole moment (field-independent basis, Debye-Ang**2):
  XXX=            -82.8402  YYY=              0.8765  ZZZ=             -0.1635  XYY=             -9.1454
  XXY=            -61.2382  XXZ=              9.9678  XZZ=              5.8041  YZZ=             -2.2164
  YYZ=              0.7991  XYZ=             -0.5522
 Hexadecapole moment (field-independent basis, Debye-Ang**3):
 XXXX=          -2604.0197 YYYY=           -414.5937 ZZZZ=           -229.6635 XXXY=             18.8562
 XXXZ=              6.6041 YYYX=            -94.0057 YYYZ=              7.0464 ZZZX=             -6.7160
 ZZZY=              1.7807 XXYY=           -366.1117 XXZZ=           -467.1188 YYZZ=           -127.9952
 XXYZ=              7.0638 YYXZ=             -2.3017 ZZXY=             -0.7713
 N-N= 7.813521379222D+02 E-N=-3.178870156630D+03  KE= 6.852322824586D+02
 Calling FoFJK, ICntrl=      2127 FMM=F ISym2X=0 I1Cent= 0 IOpClX= 0 NMat=1 NMatS=1 NMatT=0.
 ***** Axes restored to original set *****
 -------------------------------------------------------------------
 Center     Atomic                   Forces (Hartrees/Bohr)
 Number     Number              X              Y              Z
 -------------------------------------------------------------------
      1        6           0.004900655   -0.003322312    0.024966017
      2        8           0.004350674    0.002738991    0.009929867
      3        1          -0.010979551   -0.000336309   -0.003782088
      4        1          -0.004683969    0.002435186   -0.002302561
      5        1           0.001951786    0.003195266   -0.009435458
      6        6          -0.023371566   -0.004360550    0.032421249
      7        8           0.031318767    0.002185366   -0.030778746
      8        6          -0.013739277    0.010067242   -0.016339428
      9        6           0.004318718    0.002533261    0.004468494
     10        6           0.011911349   -0.005406488   -0.009417256
     11        6           0.011579145    0.001607502   -0.006892303
     12        1          -0.001406564    0.000481393    0.009089088
     13        1           0.000258418    0.003544878    0.008185308
     14        8           0.001756458   -0.001305690   -0.009053409
     15        1          -0.010900761   -0.000339857    0.004509972
     16        1           0.006312880    0.005609284    0.001528703
     17        8          -0.012969795   -0.004200392   -0.007063089
     18        1           0.010869835   -0.005251677    0.007293449
     19        1          -0.009162026    0.006513188   -0.001269600
     20        8           0.022537012   -0.010546481   -0.008503693
     21        1          -0.009419195   -0.006224929   -0.009626978
     22        1          -0.011705729    0.003285369    0.006249263
     23        8          -0.014770556   -0.008197392    0.001487639
     24        1           0.011043294    0.005295153    0.004335560
 -------------------------------------------------------------------
 Cartesian Forces:  Max     0.032421249 RMS     0.010692457

 GradGradGradGradGradGradGradGradGradGradGradGradGradGradGradGradGradGrad
 Berny optimization.
 Internal  Forces:  Max     0.043963441 RMS     0.010510670
 Search for a local minimum.
 Step number   1 out of a maximum of  125
 All quantities printed in internal units (Hartrees-Bohrs-Radians)
 Mixed Optimization -- RFO/linear search
 Second derivative matrix not updated -- first step.
 ITU=  0
     Eigenvalues ---    0.00235   0.00287   0.00383   0.00400   0.00474
     Eigenvalues ---    0.00546   0.01330   0.01367   0.01374   0.01398
     Eigenvalues ---    0.01513   0.03781   0.04408   0.04529   0.04772
     Eigenvalues ---    0.04838   0.05219   0.05249   0.05567   0.06358
     Eigenvalues ---    0.07013   0.07362   0.07927   0.08477   0.11472
     Eigenvalues ---    0.11550   0.13692   0.13970   0.16000   0.16000
     Eigenvalues ---    0.16000   0.16000   0.16000   0.16590   0.17086
     Eigenvalues ---    0.18266   0.19519   0.19825   0.19831   0.22028
     Eigenvalues ---    0.22170   0.24991   0.25000   0.28507   0.28855
     Eigenvalues ---    0.29519   0.29643   0.30691   0.33939   0.34160
     Eigenvalues ---    0.34212   0.34235   0.34424   0.34470   0.34557
     Eigenvalues ---    0.41374   0.41777   0.41860   0.42126   0.43452
     Eigenvalues ---    0.52821   0.52872   0.52885   0.52899   0.52984
     Eigenvalues ---    0.90276
 RFO step:  Lambda=-4.93505149D-02 EMin= 2.34970769D-03
 Linear search not attempted -- first point.
 Maximum step size (   0.300) exceeded in Quadratic search.
    -- Step size scaled by   0.804
 Iteration  1 RMS(Cart)=  0.25150718 RMS(Int)=  0.01271502
 Iteration  2 RMS(Cart)=  0.03060973 RMS(Int)=  0.00092492
 Iteration  3 RMS(Cart)=  0.00052816 RMS(Int)=  0.00090931
 Iteration  4 RMS(Cart)=  0.00000048 RMS(Int)=  0.00090931
 Variable       Old X    -DE/DX   Delta X   Delta X   Delta X     New X
                                 (Linear)    (Quad)   (Total)
    R1        2.67116   0.00615   0.00000   0.01022   0.01022   2.68138
    R2        2.06543  -0.00348   0.00000  -0.00711  -0.00711   2.05832
    R3        2.06400   0.00654   0.00000   0.01333   0.01333   2.07732
    R4        2.86607   0.00257   0.00000   0.00581   0.00581   2.87188
    R5        1.83773  -0.01161   0.00000  -0.01616  -0.01616   1.82158
    R6        2.32806  -0.04369   0.00000  -0.03692  -0.03692   2.29114
    R7        2.88681   0.02127   0.00000   0.04949   0.04949   2.93630
    R8        2.90306   0.00831   0.00000   0.01978   0.01978   2.92284
    R9        2.06974   0.00043   0.00000   0.00087   0.00087   2.07061
   R10        2.68763   0.00875   0.00000   0.01497   0.01497   2.70259
   R11        2.91044  -0.00817   0.00000  -0.01964  -0.01964   2.89080
   R12        2.07433  -0.00021   0.00000  -0.00043  -0.00043   2.07390
   R13        2.69207   0.01492   0.00000   0.02570   0.02570   2.71777
   R14        2.88932  -0.00160   0.00000  -0.00373  -0.00373   2.88559
   R15        2.07060  -0.00031   0.00000  -0.00063  -0.00063   2.06997
   R16        2.69728  -0.00204   0.00000  -0.00354  -0.00354   2.69374
   R17        2.06935   0.00078   0.00000   0.00159   0.00159   2.07094
   R18        2.06621   0.00486   0.00000   0.00992   0.00992   2.07613
   R19        2.69101   0.00600   0.00000   0.01032   0.01032   2.70133
   R20        1.83748  -0.01177   0.00000  -0.01637  -0.01637   1.82111
   R21        1.83821  -0.01384   0.00000  -0.01927  -0.01927   1.81894
   R22        1.83668  -0.01392   0.00000  -0.01934  -0.01934   1.81734
   R23        1.83761  -0.01269   0.00000  -0.01765  -0.01765   1.81996
    A1        1.89497   0.00709   0.00000   0.03069   0.03041   1.92538
    A2        1.89387   0.00651   0.00000   0.02824   0.02798   1.92185
    A3        1.92697  -0.00833   0.00000  -0.02365  -0.02358   1.90338
    A4        1.92656  -0.00080   0.00000  -0.00412  -0.00477   1.92179
    A5        1.91043  -0.00258   0.00000  -0.01692  -0.01687   1.89356
    A6        1.91099  -0.00182   0.00000  -0.01371  -0.01367   1.89732
    A7        1.87619  -0.00056   0.00000  -0.00216  -0.00216   1.87404
    A8        2.11798  -0.01640   0.00000  -0.04372  -0.04421   2.07376
    A9        2.04303   0.04396   0.00000   0.11851   0.11803   2.16106
   A10        2.12188  -0.02746   0.00000  -0.07345  -0.07392   2.04796
   A11        2.01561   0.03725   0.00000   0.12801   0.12873   2.14434
   A12        1.86411  -0.01470   0.00000  -0.06678  -0.06477   1.79934
   A13        1.89282  -0.01120   0.00000  -0.02033  -0.02240   1.87042
   A14        1.92887  -0.01255   0.00000  -0.05698  -0.05489   1.87398
   A15        1.88958  -0.01052   0.00000  -0.01774  -0.01956   1.87002
   A16        1.86730   0.01044   0.00000   0.02896   0.02759   1.89488
   A17        2.01558  -0.01846   0.00000  -0.07128  -0.07098   1.94460
   A18        1.95335  -0.00242   0.00000  -0.01417  -0.01820   1.93515
   A19        1.83605   0.02774   0.00000   0.10497   0.10284   1.93889
   A20        1.87740   0.00764   0.00000   0.00018  -0.00108   1.87632
   A21        1.91801  -0.01558   0.00000  -0.05835  -0.05551   1.86250
   A22        1.85723   0.00211   0.00000   0.04781   0.04647   1.90370
   A23        1.95210  -0.00280   0.00000  -0.00530  -0.00510   1.94700
   A24        1.93255  -0.00241   0.00000  -0.01909  -0.01953   1.91302
   A25        1.91878  -0.00258   0.00000  -0.01845  -0.01866   1.90012
   A26        1.77467   0.00699   0.00000   0.05003   0.05009   1.82476
   A27        1.89175   0.00407   0.00000   0.01718   0.01709   1.90883
   A28        1.99016  -0.00257   0.00000  -0.01896  -0.02013   1.97003
   A29        1.93950  -0.00366   0.00000  -0.02522  -0.02521   1.91429
   A30        1.95260  -0.00269   0.00000  -0.01941  -0.01933   1.93327
   A31        1.89918  -0.01159   0.00000  -0.03232  -0.03221   1.86697
   A32        1.91100   0.00036   0.00000   0.00004  -0.00124   1.90976
   A33        1.88009   0.00896   0.00000   0.03845   0.03783   1.91791
   A34        1.87901   0.00943   0.00000   0.04275   0.04229   1.92130
   A35        1.86806   0.00159   0.00000   0.00612   0.00612   1.87418
   A36        1.88091   0.00208   0.00000   0.00800   0.00800   1.88891
   A37        1.88426   0.00299   0.00000   0.01151   0.01151   1.89576
   A38        1.88332   0.00188   0.00000   0.00724   0.00724   1.89056
    D1        1.04720   0.00337   0.00000   0.01256   0.01310   1.06030
    D2       -1.04720  -0.00357   0.00000  -0.01671  -0.01723  -1.06443
    D3        3.14159  -0.00039   0.00000  -0.00329  -0.00331   3.13829
    D4       -0.02957  -0.00085   0.00000  -0.01076  -0.01053  -0.04009
    D5        3.13798  -0.00461   0.00000  -0.06772  -0.06797   3.07001
    D6        2.05550   0.00114   0.00000   0.00188   0.00210   2.05761
    D7       -1.06014  -0.00262   0.00000  -0.05508  -0.05534  -1.11548
    D8       -2.11363  -0.00260   0.00000  -0.02240  -0.02212  -2.13575
    D9        1.05392  -0.00636   0.00000  -0.07936  -0.07957   0.97435
   D10       -0.02602   0.00039   0.00000   0.00431   0.00323  -0.02279
   D11       -2.17862   0.00283   0.00000   0.04318   0.04381  -2.13481
   D12        2.09755   0.00366   0.00000   0.05344   0.05314   2.15069
   D13        3.14159  -0.00355   0.00000  -0.05327  -0.05385   3.08774
   D14        0.98899  -0.00111   0.00000  -0.01440  -0.01326   0.97572
   D15       -1.01803  -0.00029   0.00000  -0.00414  -0.00394  -1.02197
   D16        3.12086   0.00311   0.00000   0.08345   0.08273  -3.07960
   D17       -1.00654  -0.00323   0.00000   0.01492   0.01604  -0.99051
   D18        1.00309   0.01396   0.00000   0.12462   0.12633   1.12942
   D19       -1.04426   0.00090   0.00000   0.04339   0.04147  -1.00280
   D20        1.11152  -0.00544   0.00000  -0.02515  -0.02522   1.08630
   D21        3.12116   0.01174   0.00000   0.08456   0.08507  -3.07696
   D22        0.99555   0.00028   0.00000   0.03601   0.03438   1.02993
   D23       -3.13185  -0.00606   0.00000  -0.03253  -0.03231   3.11902
   D24       -1.12221   0.01113   0.00000   0.07717   0.07798  -1.04423
   D25        2.00493  -0.01787   0.00000  -0.08723  -0.08667   1.91826
   D26       -2.07914   0.01412   0.00000   0.04654   0.04597  -2.03317
   D27        0.00000  -0.00059   0.00000  -0.01432  -0.01430  -0.01430
   D28       -3.12566  -0.00880   0.00000  -0.05196  -0.05264   3.10489
   D29       -1.15972  -0.00330   0.00000  -0.00518  -0.00606  -1.16578
   D30        1.05505  -0.01034   0.00000  -0.05764  -0.05827   0.99678
   D31        0.96229   0.00174   0.00000   0.01903   0.01900   0.98128
   D32        2.92823   0.00723   0.00000   0.06581   0.06557   2.99379
   D33       -1.14019   0.00019   0.00000   0.01334   0.01337  -1.12682
   D34       -1.05269   0.00317   0.00000  -0.00722  -0.00636  -1.05905
   D35        0.91324   0.00866   0.00000   0.03956   0.04021   0.95346
   D36        3.12801   0.00162   0.00000  -0.01291  -0.01199   3.11602
   D37       -2.07517  -0.01141   0.00000  -0.07344  -0.07635  -2.15152
   D38        2.02772   0.00259   0.00000  -0.01912  -0.01892   2.00880
   D39        0.00000   0.00032   0.00000  -0.01600  -0.01329  -0.01329
   D40        1.09888  -0.00208   0.00000  -0.02203  -0.02198   1.07690
   D41       -1.04308   0.00205   0.00000   0.01014   0.01013  -1.03295
   D42       -3.11698  -0.00050   0.00000  -0.01008  -0.00999  -3.12697
   D43       -0.96377  -0.00196   0.00000  -0.02566  -0.02545  -0.98921
   D44       -3.10572   0.00217   0.00000   0.00652   0.00666  -3.09906
   D45        1.10356  -0.00038   0.00000  -0.01371  -0.01346   1.09010
   D46       -3.06614  -0.00434   0.00000  -0.03690  -0.03713  -3.10327
   D47        1.07509  -0.00021   0.00000  -0.00472  -0.00503   1.07006
   D48       -0.99882  -0.00276   0.00000  -0.02495  -0.02514  -1.02396
   D49       -2.18207   0.00005   0.00000  -0.00383  -0.00411  -2.18618
   D50        1.96255   0.00251   0.00000   0.00322   0.00306   1.96561
   D51        0.00000  -0.00715   0.00000  -0.05828  -0.05784  -0.05784
   D52       -3.13543   0.00062   0.00000   0.00510   0.00511  -3.13032
   D53       -1.03109  -0.00517   0.00000  -0.02124  -0.02227  -1.05335
   D54        1.02827   0.00500   0.00000   0.02190   0.02291   1.05118
         Item               Value     Threshold  Converged?
 Maximum Force            0.043963     0.000450     NO 
 RMS     Force            0.010511     0.000300     NO 
 Maximum Displacement     0.938601     0.001800     NO 
 RMS     Displacement     0.269357     0.001200     NO 
 Predicted change in Energy=-2.846623D-02
 GradGradGradGradGradGradGradGradGradGradGradGradGradGradGradGradGradGrad

                          Input orientation:                          
 ---------------------------------------------------------------------
 Center     Atomic      Atomic             Coordinates (Angstroms)
 Number     Number       Type             X           Y           Z
 ---------------------------------------------------------------------
      1          6           0       -0.069793    0.019291    0.298241
      2          8           0       -0.396842    0.155488    1.672227
      3          1           0        0.430801    0.156685    2.166373
      4          1           0        0.457552   -0.918087    0.126138
      5          1           0        0.549243    0.866778   -0.028807
      6          6           0       -1.351567    0.008212   -0.518165
      7          8           0       -2.414539    0.066699    0.062037
      8          6           0       -1.387524   -0.033730   -2.071006
      9          6           0       -0.108219   -0.038881   -2.940279
     10          6           0       -0.446031    0.004828   -4.431619
     11          6           0        0.815057    0.051959   -5.291348
     12          1           0        1.409270   -0.853687   -5.124897
     13          1           0        1.420135    0.935878   -5.047262
     14          8           0        0.388726    0.110144   -6.654535
     15          1           0        1.180680    0.129760   -7.203282
     16          1           0       -1.955781    0.866448   -2.330565
     17          8           0       -2.155705   -1.180741   -2.444626
     18          1           0       -2.988074   -0.876349   -2.820119
     19          1           0        0.519033    0.833844   -2.718173
     20          8           0        0.658990   -1.236117   -2.724897
     21          1           0        1.545660   -0.986974   -2.448117
     22          1           0       -0.943330   -0.926545   -4.723326
     23          8           0       -1.238542    1.160921   -4.691093
     24          1           0       -2.049421    0.880191   -5.128349
 ---------------------------------------------------------------------
                    Distance matrix (angstroms):
                    1          2          3          4          5
     1  C    0.000000
     2  O    1.418925   0.000000
     3  H    1.938915   0.963937   0.000000
     4  H    1.089216   2.067111   2.306169   0.000000
     5  H    1.099273   2.072324   2.310212   1.793923   0.000000
     6  C    1.519732   2.393953   3.225775   2.132151   2.142355
     7  O    2.357090   2.582963   3.540097   3.036910   3.071219
     8  C    2.711560   3.876732   4.614970   3.002305   2.955090
     9  C    3.239271   4.625613   5.138744   3.239755   3.119157
    10  C    4.744822   6.105903   6.657732   4.737233   4.595462
    11  C    5.659287   7.069002   7.468348   5.515247   5.331877
    12  H    5.688598   7.105024   7.425691   5.336973   5.446997
    13  H    5.624448   7.004423   7.322735   5.579230   5.093929
    14  O    6.968471   8.363859   8.821131   6.858536   6.670722
    15  H    7.605836   9.014649   9.399654   7.439173   7.239820
    16  H    3.344435   4.354090   5.140233   3.878676   3.401946
    17  O    3.648893   4.672000   5.453442   3.675177   4.164764
    18  H    4.363795   5.287755   6.133594   4.533708   4.831410
    19  H    3.179460   4.535924   4.932050   3.341129   2.689737
    20  O    3.353586   4.731389   5.090824   2.875781   3.420981
    21  H    3.341368   4.696357   4.883072   2.795624   3.206603
    22  H    5.183996   6.509420   7.108417   5.047756   5.242355
    23  O    5.250023   6.497014   7.128817   5.514047   5.001960
    24  H    5.840201   7.035911   7.738729   6.093303   5.723509
                    6          7          8          9         10
     6  C    0.000000
     7  O    1.212421   0.000000
     8  C    1.553824   2.369540   0.000000
     9  C    2.723008   3.787369   1.546701   0.000000
    10  C    4.016855   4.906301   2.541729   1.529745   0.000000
    11  C    5.242084   6.252138   3.902474   2.527491   1.526990
    12  H    5.439400   6.509448   4.221449   2.781948   2.158663
    13  H    5.390326   6.447103   4.204900   2.779459   2.174499
    14  O    6.379189   7.278223   4.917774   3.750314   2.376819
    15  H    7.149674   8.106444   5.741311   4.456781   3.216196
    16  H    2.094382   2.564099   1.095722   2.145893   2.726932
    17  O    2.402394   2.811843   1.430150   2.396188   2.876926
    18  H    2.959661   3.086277   1.957789   3.001559   3.136142
    19  H    3.003472   4.113870   2.192365   1.097462   2.134130
    20  O    3.234248   4.348668   2.462017   1.438184   2.381999
    21  H    3.620640   4.805651   3.107162   1.968862   2.980735
    22  H    4.327102   5.103988   2.833589   2.159772   1.095380
    23  O    4.330685   5.017224   2.883442   2.404683   1.425465
    24  H    4.743537   5.266421   3.258942   3.066041   1.955134
                   11         12         13         14         15
    11  C    0.000000
    12  H    1.095897   0.000000
    13  H    1.098640   1.791281   0.000000
    14  O    1.429483   2.076119   2.080617   0.000000
    15  H    1.948134   2.310651   2.314214   0.963690   0.000000
    16  H    4.136081   4.700077   4.333829   4.976487   5.841529
    17  O    4.295207   4.472121   4.903103   5.085652   5.957658
    18  H    4.629528   4.964791   5.260859   5.203719   6.132119
    19  H    2.705587   3.071254   2.499410   4.004456   4.587997
    20  O    2.875790   2.543457   3.269599   4.162633   4.711021
    21  H    3.114020   2.683564   3.235532   4.498457   4.898153
    22  H    2.090943   2.387738   3.026470   2.564891   3.431819
    23  O    2.409848   3.355255   2.691851   2.758122   3.636897
    24  H    2.986263   3.868964   3.470950   2.977713   3.911782
                   16         17         18         19         20
    16  H    0.000000
    17  O    2.060088   0.000000
    18  H    2.083898   0.962542   0.000000
    19  H    2.505196   3.359703   3.903198   0.000000
    20  O    3.378358   2.829157   3.666003   2.074697   0.000000
    21  H    3.963468   3.706435   4.550315   2.107669   0.961697
    22  H    3.156768   2.593636   2.793867   3.042715   2.580114
    23  O    2.484600   3.372118   3.272899   2.662416   3.634879
    24  H    2.799384   3.385426   3.048676   3.522506   4.194142
                   21         22         23         24
    21  H    0.000000
    22  H    3.372729   0.000000
    23  O    4.170871   2.108483   0.000000
    24  H    4.857422   2.156797   0.963082   0.000000
 Stoichiometry    C6H12O6
 Framework group  C1[X(C6H12O6)]
 Deg. of freedom    66
 Full point group                 C1      NOp   1
 Largest Abelian subgroup         C1      NOp   1
 Largest concise Abelian subgroup C1      NOp   1
                         Standard orientation:                         
 ---------------------------------------------------------------------
 Center     Atomic      Atomic             Coordinates (Angstroms)
 Number     Number       Type             X           Y           Z
 ---------------------------------------------------------------------
      1          6           0        2.691635   -0.993390   -0.269013
      2          8           0        4.097381   -0.896923   -0.436113
      3          1           0        4.437636   -1.793325   -0.535429
      4          1           0        2.455664   -1.572537    0.622782
      5          1           0        2.236886   -1.460326   -1.154211
      6          6           0        2.114642    0.402800   -0.103731
      7          8           0        2.871288    1.350044   -0.090378
      8          6           0        0.594266    0.702258    0.010946
      9          6           0       -0.486446   -0.401812   -0.062352
     10          6           0       -1.895495    0.191264   -0.007933
     11          6           0       -2.965074   -0.891468   -0.131995
     12          1           0       -2.880612   -1.591534    0.706910
     13          1           0       -2.856428   -1.439839   -1.077772
     14          8           0       -4.232831   -0.232363   -0.089600
     15          1           0       -4.912940   -0.911762   -0.157184
     16          1           0        0.413769    1.392440   -0.820725
     17          8           0        0.394317    1.407024    1.239219
     18          1           0        0.163054    2.317567    1.029657
     19          1           0       -0.403021   -0.969216   -0.998042
     20          8           0       -0.376144   -1.308517    1.048546
     21          1           0       -0.267138   -2.200855    0.706913
     22          1           0       -2.068667    0.637576    0.977295
     23          8           0       -2.043563    1.126344   -1.073602
     24          1           0       -2.322943    1.969032   -0.700305
 ---------------------------------------------------------------------
 Rotational constants (GHZ):      1.9582440      0.4175865      0.3824921
 Standard basis: 6-311G(d,p) (5D, 7F)
 There are   288 symmetry adapted basis functions of A   symmetry.
 Integral buffers will be    131072 words long.
 Raffenetti 2 integral format.
 Two-electron integral symmetry is turned on.
   288 basis functions,   480 primitive gaussians,   300 cartesian basis functions
    48 alpha electrons       48 beta electrons
       nuclear repulsion energy       773.6204998325 Hartrees.
 NAtoms=   24 NActive=   24 NUniq=   24 SFac= 1.00D+00 NAtFMM=   50 NAOKFM=F Big=F
 One-electron integrals computed using PRISM.
 NBasis=   288 RedAO= T  NBF=   288
 NBsUse=   288 1.00D-06 NBFU=   288
 Initial guess read from the read-write file.
 B after Tr=     0.000000    0.000000    0.000000
         Rot=    1.000000    0.000000    0.000000    0.000000 Ang=   0.00 deg.
 Initial guess orbital symmetries:
       Occupied  (A) (A) (A) (A) (A) (A) (A) (A) (A) (A) (A) (A)
                 (A) (A) (A) (A) (A) (A) (A) (A) (A) (A) (A) (A)
                 (A) (A) (A) (A) (A) (A) (A) (A) (A) (A) (A) (A)
                 (A) (A) (A) (A) (A) (A) (A) (A) (A) (A) (A) (A)
       Virtual   (A) (A) (A) (A) (A) (A) (A) (A) (A) (A) (A) (A)
                 (A) (A) (A) (A) (A) (A) (A) (A) (A) (A) (A) (A)
                 (A) (A) (A) (A) (A) (A) (A) (A) (A) (A) (A) (A)
                 (A) (A) (A) (A) (A) (A) (A) (A) (A) (A) (A) (A)
                 (A) (A) (A) (A) (A) (A) (A) (A) (A) (A) (A) (A)
                 (A) (A) (A) (A) (A) (A) (A) (A) (A) (A) (A) (A)
                 (A) (A) (A) (A) (A) (A) (A) (A) (A) (A) (A) (A)
                 (A) (A) (A) (A) (A) (A) (A) (A) (A) (A) (A) (A)
                 (A) (A) (A) (A) (A) (A) (A) (A) (A) (A) (A) (A)
                 (A) (A) (A) (A) (A) (A) (A) (A) (A) (A) (A) (A)
                 (A) (A) (A) (A) (A) (A) (A) (A) (A) (A) (A) (A)
                 (A) (A) (A) (A) (A) (A) (A) (A) (A) (A) (A) (A)
                 (A) (A) (A) (A) (A) (A) (A) (A) (A) (A) (A) (A)
                 (A) (A) (A) (A) (A) (A) (A) (A) (A) (A) (A) (A)
                 (A) (A) (A) (A) (A) (A) (A) (A) (A) (A) (A) (A)
                 (A) (A) (A) (A) (A) (A) (A) (A) (A) (A) (A) (A)
                 (A) (A) (A) (A) (A) (A) (A) (A) (A) (A) (A) (A)
                 (A) (A) (A) (A) (A) (A) (A) (A) (A) (A) (A) (A)
                 (A) (A) (A) (A) (A) (A) (A) (A) (A) (A) (A) (A)
                 (A) (A) (A) (A) (A) (A) (A) (A) (A) (A) (A) (A)
 Harris functional with IExCor=  402 diagonalized for initial guess.
 ExpMin= 1.03D-01 ExpMax= 8.59D+03 ExpMxC= 1.30D+03 IAcc=1 IRadAn=         1 AccDes= 0.00D+00
 HarFok:  IExCor=  402 AccDes= 0.00D+00 IRadAn=         1 IDoV= 1
 ScaDFX=  1.000000  1.000000  1.000000  1.000000
 FoFCou: FMM=F IPFlag=           0 FMFlag=      100000 FMFlg1=           0
         NFxFlg=           0 DoJE=T BraDBF=F KetDBF=T FulRan=T
         Omega=  0.000000  0.000000  1.000000  0.000000  0.000000 ICntrl=     500 IOpCl=  0
         NMat0=    1 NMatS0=    1 NMatT0=    0 NMatD0=    1 NMtDS0=    0 NMtDT0=    0
         I1Cent=           4 NGrid=           0.
 Petite list used in FoFCou.
 Requested convergence on RMS density matrix=1.00D-08 within 128 cycles.
 Requested convergence on MAX density matrix=1.00D-06.
 Requested convergence on             energy=1.00D-06.
 No special actions if energy rises.
 Keep R1 ints in memory in canonical form, NReq=1033417600.
 Integral accuracy reduced to 1.0D-05 until final iterations.
 Initial convergence to 1.0D-05 achieved.  Increase integral accuracy.
 SCF Done:  E(RB3LYP) =  -687.329552100     A.U. after   13 cycles
             Convg  =    0.8434D-08             -V/T =  2.0031
 Calling FoFJK, ICntrl=      2127 FMM=F ISym2X=0 I1Cent= 0 IOpClX= 0 NMat=1 NMatS=1 NMatT=0.
 ***** Axes restored to original set *****
 -------------------------------------------------------------------
 Center     Atomic                   Forces (Hartrees/Bohr)
 Number     Number              X              Y              Z
 -------------------------------------------------------------------
      1        6          -0.000621052    0.003543352    0.007217615
      2        8           0.000798061    0.000596646   -0.001735899
      3        1          -0.001972201   -0.000353330   -0.001914685
      4        1           0.004576789   -0.003630560   -0.006926493
      5        1           0.002566646   -0.001584712   -0.005149030
      6        6          -0.011773901    0.002053741    0.011959790
      7        8           0.007941876   -0.001567763   -0.010713108
      8        6          -0.002560188   -0.000813174   -0.008270827
      9        6           0.004564386   -0.003410188    0.007633811
     10        6           0.006533820   -0.001079242   -0.008150890
     11        6           0.001073771    0.001074650   -0.007163675
     12        1          -0.000272431    0.001000373    0.003552298
     13        1          -0.000584422    0.001219889    0.002432812
     14        8           0.001982805   -0.000785367   -0.000211941
     15        1          -0.002868234   -0.000220887    0.000942912
     16        1           0.004740658    0.001868114   -0.000503634
     17        8          -0.002758446   -0.001650256   -0.001493525
     18        1           0.001743442   -0.001402023    0.004510182
     19        1          -0.003701107    0.002866636    0.002539210
     20        8           0.000715558   -0.000466656    0.006697948
     21        1          -0.002147251   -0.000565321   -0.000482664
     22        1          -0.005455635    0.002733345    0.004757377
     23        8          -0.007219082   -0.001684494    0.001879721
     24        1           0.004696137    0.002257229   -0.001407306
 -------------------------------------------------------------------
 Cartesian Forces:  Max     0.011959790 RMS     0.004276595

 GradGradGradGradGradGradGradGradGradGradGradGradGradGradGradGradGradGrad
 Berny optimization.
 Using GEDIIS/GDIIS optimizer.
 Internal  Forces:  Max     0.018875337 RMS     0.004144579
 Search for a local minimum.
 Step number   2 out of a maximum of  125
 All quantities printed in internal units (Hartrees-Bohrs-Radians)
 Mixed Optimization -- RFO/linear search
 Update second derivatives using D2CorX and points    1    2
 DE= -1.11D-02 DEPred=-2.85D-02 R= 3.90D-01
 Trust test= 3.90D-01 RLast= 4.35D-01 DXMaxT set to 3.00D-01
 ITU=  0  0
 Use linear search instead of GDIIS.
     Eigenvalues ---    0.00235   0.00300   0.00383   0.00401   0.00488
     Eigenvalues ---    0.00561   0.01326   0.01374   0.01380   0.01395
     Eigenvalues ---    0.01513   0.03790   0.04358   0.04540   0.04891
     Eigenvalues ---    0.04934   0.05238   0.05469   0.05855   0.06526
     Eigenvalues ---    0.06876   0.07427   0.07503   0.09023   0.10943
     Eigenvalues ---    0.11203   0.13537   0.13865   0.15976   0.16000
     Eigenvalues ---    0.16000   0.16000   0.16001   0.16503   0.16985
     Eigenvalues ---    0.19482   0.19673   0.19789   0.21799   0.22104
     Eigenvalues ---    0.22291   0.24721   0.28256   0.28614   0.29318
     Eigenvalues ---    0.29519   0.30687   0.33932   0.34110   0.34185
     Eigenvalues ---    0.34225   0.34248   0.34388   0.34519   0.40570
     Eigenvalues ---    0.41407   0.41831   0.42067   0.42656   0.45118
     Eigenvalues ---    0.51967   0.52840   0.52880   0.52898   0.52995
     Eigenvalues ---    0.87638
 RFO step:  Lambda=-6.76470842D-03 EMin= 2.34969833D-03
 Quartic linear search produced a step of -0.27306.
 Iteration  1 RMS(Cart)=  0.15311412 RMS(Int)=  0.00619383
 Iteration  2 RMS(Cart)=  0.01027622 RMS(Int)=  0.00058614
 Iteration  3 RMS(Cart)=  0.00003129 RMS(Int)=  0.00058574
 Iteration  4 RMS(Cart)=  0.00000001 RMS(Int)=  0.00058574
 Variable       Old X    -DE/DX   Delta X   Delta X   Delta X     New X
                                 (Linear)    (Quad)   (Total)
    R1        2.68138  -0.00324  -0.00279   0.00033  -0.00246   2.67892
    R2        2.05832   0.00643   0.00194   0.00949   0.01143   2.06975
    R3        2.07732   0.00176  -0.00364   0.01090   0.00726   2.08458
    R4        2.87188  -0.00007  -0.00159   0.00297   0.00138   2.87326
    R5        1.82158  -0.00267   0.00441  -0.01278  -0.00836   1.81321
    R6        2.29114  -0.01217   0.01008  -0.03122  -0.02114   2.27000
    R7        2.93630  -0.00725  -0.01351   0.00903  -0.00448   2.93182
    R8        2.92284  -0.00955  -0.00540  -0.01306  -0.01846   2.90438
    R9        2.07061  -0.00081  -0.00024  -0.00121  -0.00145   2.06917
   R10        2.70259   0.00221  -0.00409   0.01207   0.00799   2.71058
   R11        2.89080   0.00388   0.00536  -0.00074   0.00462   2.89542
   R12        2.07390   0.00068   0.00012   0.00120   0.00131   2.07522
   R13        2.71777   0.00103  -0.00702   0.01602   0.00901   2.72678
   R14        2.88559  -0.00023   0.00102  -0.00256  -0.00154   2.88405
   R15        2.06997  -0.00111   0.00017  -0.00268  -0.00251   2.06746
   R16        2.69374   0.00178   0.00097   0.00113   0.00209   2.69583
   R17        2.07094  -0.00044  -0.00043  -0.00004  -0.00048   2.07047
   R18        2.07613   0.00120  -0.00271   0.00790   0.00519   2.08132
   R19        2.70133  -0.00047  -0.00282   0.00492   0.00210   2.70343
   R20        1.82111  -0.00290   0.00447  -0.01320  -0.00873   1.81238
   R21        1.81894  -0.00371   0.00526  -0.01596  -0.01069   1.80825
   R22        1.81734  -0.00226   0.00528  -0.01401  -0.00873   1.80861
   R23        1.81996  -0.00397   0.00482  -0.01539  -0.01057   1.80939
    A1        1.92538   0.00423  -0.00830   0.04263   0.03434   1.95972
    A2        1.92185   0.00326  -0.00764   0.03637   0.02872   1.95057
    A3        1.90338  -0.00008   0.00644  -0.00752  -0.00104   1.90235
    A4        1.92179  -0.00290   0.00130  -0.02998  -0.02930   1.89249
    A5        1.89356  -0.00292   0.00461  -0.02519  -0.02081   1.87275
    A6        1.89732  -0.00175   0.00373  -0.01798  -0.01447   1.88285
    A7        1.87404  -0.00121   0.00059  -0.00634  -0.00575   1.86829
    A8        2.07376   0.01589   0.01207   0.02316   0.03249   2.10626
    A9        2.16106  -0.01888  -0.03223   0.00908  -0.02571   2.13534
   A10        2.04796   0.00300   0.02019  -0.02903  -0.01127   2.03669
   A11        2.14434  -0.01726  -0.03515  -0.01173  -0.04738   2.09696
   A12        1.79934   0.00641   0.01769  -0.00297   0.01393   1.81327
   A13        1.87042   0.00092   0.00612  -0.02315  -0.01664   1.85378
   A14        1.87398   0.00085   0.01499  -0.01942  -0.00556   1.86842
   A15        1.87002   0.01037   0.00534   0.01420   0.01916   1.88918
   A16        1.89488  -0.00042  -0.00753   0.05316   0.04592   1.94080
   A17        1.94460   0.00019   0.01938  -0.03013  -0.01083   1.93377
   A18        1.93515  -0.00178   0.00497  -0.03244  -0.02631   1.90884
   A19        1.93889  -0.00465  -0.02808   0.02804   0.00060   1.93949
   A20        1.87632   0.00000   0.00029   0.01751   0.01790   1.89422
   A21        1.86250   0.00532   0.01516   0.00228   0.01657   1.87907
   A22        1.90370   0.00136  -0.01269   0.01657   0.00392   1.90762
   A23        1.94700   0.00030   0.00139   0.00102   0.00239   1.94939
   A24        1.91302  -0.00266   0.00533  -0.02589  -0.02067   1.89235
   A25        1.90012   0.00095   0.00509  -0.00690  -0.00186   1.89827
   A26        1.82476   0.00386  -0.01368   0.04950   0.03590   1.86067
   A27        1.90883  -0.00101  -0.00467   0.00656   0.00194   1.91078
   A28        1.97003  -0.00139   0.00550  -0.02268  -0.01719   1.95284
   A29        1.91429  -0.00181   0.00688  -0.02293  -0.01610   1.89819
   A30        1.93327  -0.00194   0.00528  -0.02118  -0.01596   1.91731
   A31        1.86697  -0.00118   0.00880  -0.02017  -0.01136   1.85561
   A32        1.90976   0.00042   0.00034  -0.00009   0.00011   1.90987
   A33        1.91791   0.00213  -0.01033   0.03088   0.02057   1.93849
   A34        1.92130   0.00237  -0.01155   0.03351   0.02195   1.94326
   A35        1.87418   0.00155  -0.00167   0.00973   0.00806   1.88224
   A36        1.88891   0.00033  -0.00219   0.00526   0.00308   1.89199
   A37        1.89576  -0.00005  -0.00314   0.00529   0.00215   1.89792
   A38        1.89056   0.00139  -0.00198   0.00954   0.00756   1.89812
    D1        1.06030   0.00063  -0.00358   0.00356   0.00003   1.06033
    D2       -1.06443  -0.00068   0.00471  -0.01105  -0.00639  -1.07082
    D3        3.13829  -0.00045   0.00090  -0.00629  -0.00539   3.13290
    D4       -0.04009  -0.00060   0.00287  -0.02396  -0.02192  -0.06201
    D5        3.07001   0.00013   0.01856   0.09990   0.11931  -3.09387
    D6        2.05761   0.00274  -0.00057   0.00825   0.00656   2.06417
    D7       -1.11548   0.00347   0.01511   0.13210   0.14780  -0.96768
    D8       -2.13575  -0.00346   0.00604  -0.05289  -0.04744  -2.18320
    D9        0.97435  -0.00273   0.02173   0.07097   0.09379   1.06814
   D10       -0.02279  -0.00297  -0.00088  -0.10447  -0.10456  -0.12735
   D11       -2.13481   0.00152  -0.01196  -0.06764  -0.07886  -2.21366
   D12        2.15069  -0.00122  -0.01451  -0.11664  -0.12981   2.02088
[...]
 061619,0.00021986,0.00007260,-0.00014332,0.00000512,-0.00001676,-0.000
 05673,0.00051850,0.00006463,0.00010433,0.00004089,-0.00025494,0.000096
 18,-0.01075457,0.00824930,-0.00146092,0.00088375,-0.00147963,-0.001267
 52,-0.18551660,0.12051806,-0.01819186,-0.01700440,0.01386873,-0.002989
 59,-0.00086692,-0.00003158,-0.00021592,-0.00005905,0.00010280,-0.00009
 089,0.00007628,0.00000529,-0.00010935,0.00000198,-0.00005336,0.0000506
 5,0.00013073,-0.00001883,0.00008518,0.00000217,0.00001668,0.00001292,0
 .19979985,0.00112789,0.00017263,-0.00004133,-0.00012207,0.00001653,-0.
 00003275,0.00005713,-0.00002964,0.00002699,-0.00021840,-0.00006608,-0.
 00008187,-0.00028764,-0.00000894,-0.00045449,0.00006060,0.00210638,0.0
 0230727,-0.00062395,-0.00047992,0.00004350,0.11447521,-0.13693072,0.01
 082417,-0.00316803,0.00247440,0.00113868,0.00063038,-0.00035667,0.0004
 2014,-0.00017897,0.00003781,0.00004368,-0.00001673,-0.00001429,0.00003
 230,0.00001855,0.00004965,-0.00005662,-0.00002554,0.00001230,-0.000085
 06,0.00000170,-0.00001205,-0.00000693,-0.12258290,0.17281605,0.0024436
 1,-0.00194085,-0.00056856,0.00028555,-0.00021597,-0.00053410,0.0001249
 0,-0.00008242,-0.00007060,0.00042116,0.00075783,-0.00092292,-0.0004942
 2,-0.00054783,0.00040777,-0.02448726,0.02028792,-0.00133771,0.00080433
 ,-0.00374957,-0.00201683,-0.02446032,0.02292111,-0.05265227,0.01844288
 ,-0.01372781,0.00385589,0.00084256,0.00003316,0.00085367,0.00001463,0.
 00003814,0.00000321,-0.00009137,-0.00001714,0.00011101,0.00002663,0.00
 004402,-0.00003572,-0.00012846,0.00001436,0.00002396,-0.00001219,-0.00
 000979,-0.00001616,0.01917138,-0.01865386,0.05193993,-0.00221669,0.004
 26879,-0.00001869,0.00083512,-0.00063445,0.00003089,-0.00018343,0.0001
 2855,0.00007846,0.00120037,-0.00077995,-0.00031338,-0.00016258,-0.0008
 2281,-0.00168699,-0.01036794,-0.02428626,0.00033733,-0.00183502,0.0003
 1785,-0.00698162,-0.08439106,-0.05959172,-0.00705166,-0.00551497,-0.03
 013534,-0.00131191,-0.00399646,0.00076476,-0.00244404,0.00076324,-0.00
 093722,-0.00101988,0.00022652,0.00006800,-0.00029638,-0.00016443,0.000
 09179,0.00033911,0.00043486,0.00041217,0.00081976,0.00003864,-0.000017
 43,-0.00004718,0.01457219,0.01165518,0.00199726,0.23596530,0.00087463,
 0.00046223,-0.00040859,-0.00009043,0.00056266,0.00019426,0.00013817,-0
 .00013981,-0.00003977,0.00011218,-0.00015375,-0.00049866,-0.00029102,0
 .00074594,-0.00027362,-0.00760449,-0.01481918,0.00014696,-0.00147777,0
 .00005936,-0.00409353,-0.03435359,-0.19801368,0.01628326,-0.00842566,-
 0.02370921,0.00301547,-0.00100945,-0.00276420,-0.00355667,-0.00010204,
 0.00070678,-0.00057218,0.00008064,-0.00000498,-0.00015046,0.00012735,0
 .00050099,-0.00035153,0.00009317,0.00044141,0.00089588,0.00008628,-0.0
 0004090,0.00000240,-0.01556470,-0.04349359,-0.00508630,0.09143588,0.31
 392045,0.00135317,0.00289931,-0.00226254,-0.00174124,-0.00202401,-0.00
 111076,0.00003247,0.00008421,0.00080581,-0.00122981,0.00023745,-0.0003
 9852,0.00037577,-0.00169788,-0.00245452,-0.01308423,-0.03712546,0.0043
 2755,-0.00782367,-0.00070715,-0.00866243,-0.01806059,-0.02223655,-0.08
 783471,0.00572932,0.02322737,0.00170963,-0.00385879,-0.00162774,-0.000
 20978,0.00000632,0.00153530,0.00088776,0.00020352,-0.00002402,-0.00026
 783,0.00014300,0.00007601,-0.00040066,0.00026698,-0.00026828,-0.000343
 69,0.00010008,0.00007778,0.00027436,0.00201092,0.00065406,0.00426885,0
 .23717000,-0.00314903,0.46200342,0.00016072,-0.00014249,0.00003510,0.0
 0003878,0.00023098,0.00031396,0.00004557,0.00001300,-0.00005884,0.0000
 5066,-0.00011197,-0.00003116,-0.00014960,0.00003172,-0.00004053,-0.000
 13065,-0.00123126,0.00139389,-0.00004657,-0.00021075,-0.00042826,-0.00
 996409,-0.00381871,-0.01546343,-0.00124896,0.00017699,-0.00145488,-0.0
 0097217,-0.00339678,0.00355337,-0.00095332,0.00062382,0.00034795,-0.00
 007145,-0.00007082,0.00014007,0.00014046,0.00016829,-0.00033496,-0.000
 05667,-0.00009712,-0.00062987,0.00002583,-0.00000694,0.00004845,0.0019
 8532,0.00085749,0.00109693,-0.14700993,-0.01817570,-0.20853378,0.16136
 974,0.00009359,0.00010658,0.00028038,0.00003435,0.00025950,0.00042935,
 0.00002280,0.00003565,-0.00004821,0.00002122,0.00001225,-0.00004365,0.
 00000389,0.00049204,-0.00055109,-0.00210722,-0.00766144,0.00290988,-0.
 00213076,-0.00013516,-0.00263493,-0.02578971,-0.00975037,-0.03854019,-
 0.00096571,-0.00005760,-0.00033513,-0.00493653,0.00114029,0.00056214,0
 .00051640,-0.00031548,0.00022553,0.00021292,0.00006330,-0.00026781,-0.
 00011287,-0.00010498,0.00009099,0.00031314,-0.00013868,-0.00037669,0.0
 0005249,0.00002551,0.00008854,0.00037630,0.00080847,-0.00062705,0.0081
 5901,-0.04108435,0.03150390,0.02241169,0.05776020,-0.00064557,0.000688
 88,-0.00042264,0.00027608,-0.00014019,0.00064641,-0.00004797,0.0000304
 3,-0.00004676,0.00021136,-0.00002317,-0.00015914,0.00007859,-0.0001914
 4,-0.00049085,-0.00087898,-0.00079506,-0.00001629,0.00116323,0.0006789
 6,0.00030472,-0.00322120,-0.00331196,-0.00269115,0.00012051,0.00223361
 ,0.00291934,0.00883326,0.00137626,0.00074968,-0.00087127,0.00007135,-0
 .00023471,-0.00041643,-0.00007124,0.00051983,0.00016182,-0.00010078,0.
 00000604,-0.00046215,-0.00003408,0.00015794,-0.00012103,-0.00006545,-0
 .00020089,0.00027068,0.00270149,0.00059597,-0.22143824,-0.01002929,-0.
 35831077,0.22141368,0.01037495,0.36027179,-0.00001015,0.00007936,0.000
 09697,0.00007179,0.00000618,0.00014088,-0.00000417,0.00000947,0.000002
 00,0.00004009,-0.00004105,-0.00004208,-0.00006722,0.00002765,-0.000073
 92,-0.00115535,-0.00053486,-0.00007018,0.00109977,0.00023706,0.0001407
 9,-0.00059696,-0.01961871,0.00218424,-0.04793100,-0.01578297,0.0013915
 3,0.00096953,-0.00807193,0.00109732,0.00024199,0.00053440,0.00055378,0
 .00004043,0.00010749,-0.00025936,0.00022503,0.00009431,-0.00001513,-0.
 00009650,-0.00013942,0.00001399,0.00000083,0.00005086,0.00004853,-0.00
 021807,-0.00091264,-0.00024737,-0.00330375,-0.00270536,0.00396615,0.00
 063119,0.00013889,0.00037059,0.06463034,0.00036121,-0.00011747,-0.0001
 0695,-0.00002111,0.00004628,0.00019659,0.00002795,-0.00000668,-0.00000
 357,0.00003180,0.00002522,-0.00007571,-0.00001078,0.00004823,-0.000025
 62,-0.00127180,-0.00116069,-0.00025276,0.00012483,0.00142526,-0.000950
 69,-0.00021321,-0.00882862,-0.00016327,-0.01371991,-0.28575892,0.02417
 989,0.00075396,-0.01540143,0.00064396,-0.00006683,-0.00036648,0.001449
 90,-0.00010514,0.00003178,-0.00001942,0.00012606,0.00113149,-0.0008796
 3,-0.00013210,0.00079833,0.00034424,0.00007761,-0.00002398,-0.00009611
 ,-0.00071305,0.00111262,0.00036846,-0.00226169,0.00022323,0.00125848,0
 .00047764,-0.00016098,0.00014784,0.00405758,0.31345957,-0.00018881,0.0
 0024261,-0.00001881,-0.00000831,-0.00006427,-0.00012625,-0.00002354,-0
 .00000333,0.00000916,-0.00005588,-0.00001590,0.00009537,0.00004569,-0.
 00005278,0.00003845,0.00106020,0.00070271,0.00091002,-0.00096125,-0.00
 113722,-0.00055740,0.00322196,0.02273560,-0.00081845,0.00207967,0.0231
 9916,-0.05503437,0.00021431,-0.03051603,0.00161968,-0.00006633,-0.0020
 0288,0.00099465,0.00015984,0.00006904,-0.00011227,-0.00017008,0.000606
 45,-0.00030077,0.00002943,0.00059942,0.00022013,0.00006989,0.00008246,
 -0.00000130,0.00016249,-0.00023823,0.00132800,0.00409266,0.00268428,-0
 .00348319,-0.00034009,-0.00015557,-0.00067723,-0.00203916,-0.02650473,
 0.05773840,0.00001557,0.00018834,-0.00022515,0.00049330,-0.00016673,0.
 00130960,-0.00011216,0.00015343,-0.00002732,0.00036295,-0.00002147,-0.
 00009858,0.00005835,-0.00006768,-0.00007793,-0.00708088,-0.00332906,-0
 .00823645,0.00557484,0.00356403,0.00227648,-0.03549678,0.01774537,-0.0
 0062198,-0.18949919,0.06350917,-0.01482903,-0.02547580,0.00576026,-0.0
 1008822,-0.00217590,0.00085988,0.00034925,0.00079353,-0.00040229,-0.00
 071942,-0.00005576,-0.00024046,-0.00021438,0.00146781,-0.00025591,-0.0
 0043685,-0.00013240,0.00012802,-0.00008184,-0.00441789,-0.00047438,0.0
 0557883,-0.00001238,-0.00523991,0.00044668,0.00042674,0.00067807,0.000
 35727,-0.01631487,0.01361433,-0.00642892,0.34769580,0.00011535,0.00079
 605,-0.00016823,-0.00018680,0.00014488,-0.00001421,0.00007954,-0.00005
 896,-0.00001876,-0.00008851,0.00002868,0.00000883,0.00031241,0.0002990
 7,-0.00042749,0.00051458,-0.00134382,-0.00017505,0.00249897,0.00056218
 ,-0.00322651,0.00054593,0.00282655,-0.00414263,0.03651740,-0.10132146,
 -0.01199109,-0.01192630,0.00618433,-0.00112222,-0.00035955,0.00017057,
 -0.00051557,-0.00004840,-0.00024032,0.00023664,-0.00017857,0.00041188,
 -0.00067025,0.00020197,0.00051262,0.00033537,0.00004726,-0.00012628,-0
 .00006173,-0.00154470,0.00099909,0.00061608,0.00180120,0.00416856,-0.0
 0078093,0.00012111,0.00000775,-0.00036620,0.04091181,-0.00793049,0.009
 43346,-0.02248145,0.23947391,0.00084319,0.00134215,0.00124289,-0.00002
 535,-0.00034592,-0.00022515,0.00004142,0.00009275,0.00024475,0.0001607
 0,-0.00003710,-0.00028259,-0.00017691,-0.00006319,-0.00033788,-0.00895
 455,-0.00676754,-0.00111904,0.01187618,-0.00066118,-0.00675978,0.01827
 532,-0.01106762,0.00922223,-0.04424562,0.00320005,-0.08998775,-0.03621
 252,0.01306619,-0.00641634,0.00239182,0.00127802,-0.00000178,-0.001718
 11,0.00013597,-0.00076205,-0.00032921,0.00015143,-0.00006664,-0.001056
 54,-0.00069595,-0.00096937,0.00004957,0.00002895,0.00037164,0.00409634
 ,0.00114979,-0.00331912,-0.00070641,0.00026970,0.00262661,0.00051097,0
 .00041567,-0.00161362,-0.00824526,0.00413658,0.00137073,0.16544278,0.2
 1187407,0.43069137,0.00023555,0.00118754,0.00066427,-0.00027126,-0.000
 05833,-0.00071602,0.00009691,-0.00000008,0.00012281,0.00002018,-0.0000
 2859,-0.00014418,0.00008473,0.00013538,-0.00034868,-0.00611644,-0.0039
 0385,0.00249242,0.00351703,0.00059290,-0.00278485,0.00007052,-0.002454
 93,-0.00095831,-0.01977729,-0.02015673,-0.03685905,-0.00587913,0.00358
 583,0.00052236,-0.00009912,0.00000751,0.00010433,0.00028081,0.00017623
 ,-0.00033953,0.00010252,-0.00008239,0.00000180,0.00008674,-0.00001196,
 0.00021821,0.00003845,0.00000062,-0.00002471,0.00052423,0.00025920,-0.
 00008988,0.00044577,0.00076451,0.00076692,0.00000642,0.00010644,-0.000
 44368,0.00134403,0.00071023,0.00005632,-0.07538595,-0.04177231,-0.0946
 4464,0.10208409,-0.00064506,-0.00082796,-0.00006337,0.00018687,-0.0000
 2209,-0.00019143,-0.00008227,0.00001617,-0.00001447,-0.00003701,-0.000
 06405,0.00006452,-0.00025668,-0.00019816,0.00028347,0.00216236,0.00300
 583,0.00251319,-0.00284949,-0.00317535,0.00024220,-0.00011364,0.000030
 83,-0.00165027,0.00774711,0.00662163,0.01442513,0.00218362,-0.00187967
 ,-0.00073242,-0.00003990,0.00014672,0.00002115,0.00009824,0.00002950,-
 0.00001788,0.00007692,-0.00008370,0.00008652,-0.00003318,-0.00009166,0
 .00005889,-0.00000622,0.00002618,0.00001442,0.00042307,-0.00016587,-0.
 00034616,-0.00001269,-0.00023935,-0.00000894,-0.00005678,-0.00007067,0
 .00001321,0.00113154,0.00032594,0.00125361,-0.07235483,-0.14737640,-0.
 21517026,0.06164961,0.14251857,-0.00025095,-0.00164389,-0.00056563,-0.
 00004372,0.00020831,0.00019558,-0.00004072,-0.00005157,-0.00015749,-0.
 00018887,0.00005328,0.00020922,-0.00014778,-0.00008592,0.00052229,0.00
 999195,0.00558551,0.00244529,-0.00694328,-0.00224014,-0.00310932,0.000
 07227,0.00041746,0.00099960,-0.00781348,-0.00441581,-0.00850802,-0.001
 69438,0.00125350,0.00043805,-0.00011278,-0.00024748,-0.00036436,-0.000
 01481,-0.00009047,-0.00026621,-0.00009889,0.00008514,-0.00007718,0.000
 23931,0.00019800,0.00038500,-0.00000872,-0.00001637,-0.00007546,0.0000
 4487,-0.00039315,-0.00094699,0.00039164,0.00004030,-0.00142078,-0.0001
 9950,-0.00021831,0.00027870,0.00202544,-0.00126244,0.00060775,-0.13000
 666,-0.19515416,-0.32746790,0.13393567,0.19812079,0.33708204,0.0000068
 5,0.00006959,0.00006110,-0.00000911,-0.00002142,-0.00002585,0.00000057
 ,0.00000247,0.00000939,-0.00000607,0.00000965,0.00000795,0.00001697,-0
 .00000628,-0.00000236,-0.00003827,-0.00021157,0.00005493,-0.00003059,0
 .00008954,-0.00015833,-0.00012139,0.00053822,0.00031737,0.00232742,-0.
 00618565,-0.00005055,-0.05414376,0.04535918,-0.00238799,0.00426742,-0.
 01829306,0.00251898,0.00072179,-0.00009233,-0.00082552,-0.00089655,-0.
 00166828,0.00353657,0.00047680,0.00125070,-0.00089709,-0.00006554,-0.0
 0006507,-0.00030601,0.00003626,-0.00025237,-0.00016447,0.00055887,-0.0
 0060746,-0.00028954,-0.00128943,0.00106449,-0.00025868,-0.00056969,-0.
 00059341,-0.00132190,0.00048295,-0.00073515,-0.00008804,-0.00012143,-0
 .00011296,0.00005641,0.07795712,-0.00001843,-0.00003968,-0.00008225,-0
 .00000436,0.00004676,-0.00001435,0.00001013,-0.00001123,-0.00001200,0.
 00000854,0.00000179,-0.00000571,-0.00000179,0.00002303,-0.00002966,0.0
 0017655,-0.00005540,0.00011319,-0.00013466,0.00014912,-0.00008431,-0.0
 0114822,-0.00152011,0.00048756,0.00304464,-0.01825726,-0.00163308,0.04
 616287,-0.28738513,0.01549032,0.00128916,-0.01601332,0.00101939,-0.000
 46425,0.00032768,0.00028772,-0.00141559,0.00010368,0.00160994,0.000295
 61,0.00178296,-0.00039195,-0.00000166,0.00038537,-0.00017766,-0.000094
 09,0.00007713,0.00006493,-0.00107032,0.00163046,0.00151803,0.00072170,
 -0.00035002,0.00027908,-0.00044298,-0.00030248,-0.00237081,0.00033529,
 0.00203577,0.00127995,0.00002514,0.00055128,-0.00003483,-0.05521208,0.
 31098086,-0.00000051,-0.00007605,-0.00009876,0.00002179,0.00005266,0.0
 0003179,0.00000816,-0.00000370,-0.00001693,0.00002483,0.00000033,-0.00
 002567,0.00000092,0.00003422,-0.00003782,-0.00037041,-0.00019443,-0.00
 018378,0.00024021,0.00037206,-0.00019973,-0.00102047,-0.00150905,0.001
 43367,0.00429356,-0.03082490,-0.00067063,-0.00234531,0.01569385,-0.054
 21946,-0.00254885,0.02818939,-0.00325676,-0.00013870,-0.00064805,0.000
 81724,0.00199778,0.00179301,-0.00384591,-0.00052414,-0.00109269,0.0024
 4916,0.00013113,-0.00028713,0.00052079,-0.00008282,0.00026717,0.000090
 65,0.00025516,0.00110698,0.00021420,0.00083904,-0.00005412,-0.00023733
 ,-0.00149200,-0.00178735,-0.00460358,0.00139767,0.00127917,0.00193760,
 0.00041037,0.00008010,0.00004653,0.00377083,-0.01837353,0.05693787,-0.
 00024621,0.00032719,-0.00008664,0.00018139,0.00003220,-0.00007767,-0.0
 0006490,0.00003026,-0.00000080,0.00010462,-0.00007998,-0.00008684,-0.0
 0005532,0.00004774,-0.00015844,-0.00047037,-0.00075399,0.00035277,0.00
 122075,0.00048778,-0.00044828,-0.00189642,-0.00244112,0.00135019,-0.02
 103567,0.00336535,-0.00457001,-0.19226023,0.02745944,0.01067404,-0.049
 12751,0.00157962,-0.00203247,-0.00164042,-0.00228527,0.00685768,0.0023
 9663,-0.00035430,-0.00091836,0.00334799,0.00043727,-0.00015182,0.00018
 982,0.00017484,-0.00143635,0.00027282,-0.00011760,-0.00086731,0.003645
 97,0.00226959,0.00083717,-0.00334039,0.00016412,-0.00349355,0.00077914
 ,-0.00102140,0.00040075,0.00007328,-0.00310550,-0.00508654,-0.00067907
 ,0.00063362,0.00092602,-0.02972441,0.00731993,-0.00461611,0.34117858,0
 .00001111,-0.00022038,-0.00029267,0.00008473,0.00017822,0.00019368,0.0
 0001223,-0.00002878,-0.00006246,0.00003728,-0.00004144,-0.00004439,-0.
 00009434,0.00010851,-0.00007956,-0.00040293,0.00046089,0.00021568,0.00
 049165,0.00016243,0.00017681,-0.00053742,-0.00283960,-0.00021220,-0.01
 310497,0.00378874,0.00102655,0.01722928,-0.07429051,-0.00618855,-0.016
 04200,0.00350124,-0.00299828,-0.00243878,0.00063599,0.00355958,0.00066
 482,0.00271927,-0.00252197,0.00024444,0.00262112,-0.00080664,0.0006674
 8,0.00002879,-0.00008049,-0.00054954,0.00071801,-0.00020787,0.00102135
 ,0.00191400,0.00466394,0.00086123,-0.00247484,-0.00296354,0.00067252,0
 .00153792,0.00135722,-0.00157376,-0.00015204,-0.00348441,-0.00075258,0
 .00074947,-0.00007975,0.03477483,0.00594210,0.00490063,-0.01521458,0.0
 9230074,0.00023851,0.00032481,0.00045562,-0.00015586,-0.00021330,-0.00
 077404,0.00000760,-0.00001547,0.00013487,-0.00005895,0.00004071,0.0000
 0099,0.00002107,-0.00021703,0.00005785,-0.00017759,0.00036320,0.002274
 90,-0.00054117,-0.00065328,-0.00099400,0.00089154,0.00337241,-0.001526
 56,-0.03458387,0.00799028,-0.00055331,-0.03420293,-0.00348862,-0.09691
 095,0.02610843,-0.00476274,0.00112024,0.00301762,0.00217373,-0.0045277
 0,-0.00091548,-0.00116861,0.00187929,0.00613583,0.00035166,-0.00165384
 ,0.00205478,-0.00013657,0.00140040,-0.00081990,0.00033940,-0.00096003,
 -0.00227603,0.00322820,-0.01034767,-0.00181408,-0.00262252,0.00021710,
 0.00047169,-0.00068729,0.00069272,-0.00572276,-0.00475894,-0.00854413,
 -0.00188595,0.00100570,-0.00027636,-0.00509132,0.00139688,0.00288410,0
 .08931019,0.11416761,0.57845939,0.00002319,-0.00000736,-0.00001580,-0.
 00000517,0.00000936,0.00015996,0.00001109,0.00000371,-0.00001056,0.000
 00022,0.00000318,-0.00000036,0.00000544,0.00003108,-0.00000906,-0.0002
 6569,-0.00030120,-0.00037879,0.00022819,0.00014382,0.00013322,-0.00035
 085,-0.00006642,0.00065295,-0.00661596,0.00255479,0.00182715,-0.014854
 08,-0.01145024,-0.04504374,-0.00316861,-0.00299861,-0.00358032,0.00074
 127,0.00041450,-0.00027935,-0.00014625,0.00015592,0.00058278,0.0006134
 7,0.00080170,-0.00139397,0.00213441,0.00013105,0.00087945,0.00022334,-
 0.00016209,-0.00020778,0.00047180,-0.00033482,0.00121317,0.00035180,0.
 00167298,-0.00095833,0.00019359,-0.00023274,0.00001107,-0.00128516,-0.
 00124026,-0.00219859,-0.00060829,0.00030777,-0.00011905,0.00016323,0.0
 0061889,-0.00025212,-0.05285010,-0.00606205,-0.04001136,0.07498911,0.0
 0001956,-0.00002221,0.00003121,0.00000040,-0.00000909,-0.00001692,-0.0
 0000026,0.00000864,0.00000406,-0.00000042,0.00000628,-0.00001148,0.000
 00266,0.00001254,0.00000874,-0.00004703,0.00010377,0.00014407,-0.00007
 396,-0.00010613,-0.00006644,-0.00022516,-0.00060258,-0.00062058,-0.000
 73510,0.00016620,-0.00023204,0.00212554,0.00145909,0.00396500,-0.00129
 107,0.00162672,-0.00126549,0.00043660,-0.00027316,-0.00046307,-0.00056
 735,-0.00080656,0.00005517,0.00207815,-0.00224053,0.00043591,-0.000846
 22,-0.00040592,0.00006917,-0.00015880,0.00015671,0.00006661,0.00042536
 ,-0.00087307,0.00191412,0.00062364,0.00159302,-0.00050367,0.00019081,-
 0.00010766,0.00009574,0.00007173,-0.00007212,-0.00012811,0.00002064,0.
 00017279,-0.00002798,0.00089841,-0.00010335,0.00108144,-0.01895519,-0.
 03731986,-0.11603023,0.01600705,0.03763648,-0.00003734,-0.00005015,-0.
 00011681,0.00004886,0.00002634,0.00018119,-0.00000625,-0.00000082,-0.0
 0002920,0.00002177,-0.00000449,-0.00000552,-0.00001214,0.00001061,-0.0
 0001302,-0.00009856,0.00002092,-0.00027843,0.00011699,0.00009923,0.000
 21276,0.00021754,-0.00014573,0.00014467,-0.00018170,0.00133031,0.00039
 578,-0.00564746,-0.00261543,-0.00547222,0.00440368,0.00147831,0.004328
 06,-0.00030925,-0.00047783,-0.00142415,-0.00027274,-0.00033719,-0.0004
 6019,-0.00148531,-0.00028333,-0.00120275,-0.00085073,0.00008655,-0.000
 67352,-0.00006096,0.00009563,-0.00009790,0.00008014,0.00034196,0.00038
 967,-0.00036404,-0.00040606,-0.00156615,-0.00001941,0.00008958,0.00010
 857,0.00065693,-0.00018964,0.00016531,-0.00005599,0.00001230,0.0000256
 5,0.00153413,-0.00033688,0.00003277,-0.08667761,-0.11023893,-0.4625088
 7,0.08899945,0.11149475,0.46786429\\-0.00000839,0.00000191,0.00001888,
 -0.00000934,0.00001305,0.00000331,0.00001142,-0.00000877,-0.00000878,0
 .00000291,-0.00001405,-0.00000746,-0.00000203,0.00000037,0.00000180,-0
 .00000468,-0.00000489,-0.00000632,-0.00000173,-0.00000328,0.00000525,-
 0.00002951,0.00001002,0.00000958,0.00005752,-0.00001272,-0.00000086,0.
 00000113,0.00000981,0.00002292,0.00000831,0.00001250,0.00000053,-0.000
 00275,0.00000890,0.00000266,0.00000008,0.00000538,0.00000077,0.0000022
 0,-0.00000532,-0.00001588,-0.00000287,0.00000047,-0.00000179,0.0000047
 0,-0.00000480,-0.00000741,0.00001508,-0.00001726,-0.00000674,0.0000015
 4,-0.00000921,0.00001142,-0.00001765,0.00000693,0.00000254,-0.00001302
 ,0.00001429,-0.00000324,-0.00001333,0.00000730,-0.00001354,0.00000826,
 0.00000400,0.00000091,0.00000014,0.00000041,-0.00001069,-0.00000799,-0
 .00001503,0.00000212\\\@


 MEN HAVE BECOME THE TOOLS OF THEIR TOOLS... THOREAU   
 Job cpu time:  0 days  0 hours 25 minutes 22.2 seconds.
 File lengths (MBytes):  RWF=    219 Int=      0 D2E=      0 Chk=      7 Scr=      1
 Normal termination of Gaussian 09 at Mon Jan 22 23:02:31 2018.
