 Entering Gaussian System, Link 0=g09
 Input=S-R-S-Fructuose-2chance.inp
 Output=S-R-S-Fructuose-2chance.log
 Initial command:
 /usr/local/g09/l1.exe /home/g09scr/Gau-31190.inp -scrdir=/home/g09scr/
 Entering Link 1 = /usr/local/g09/l1.exe PID=     31192.
  
 Copyright (c) 1988,1990,1992,1993,1995,1998,2003,2009,2010,
            Gaussian, Inc.  All Rights Reserved.
  
 This is part of the Gaussian(R) 09 program.  It is based on
 the Gaussian(R) 03 system (copyright 2003, Gaussian, Inc.),
 the Gaussian(R) 98 system (copyright 1998, Gaussian, Inc.),
 the Gaussian(R) 94 system (copyright 1995, Gaussian, Inc.),
 the Gaussian 92(TM) system (copyright 1992, Gaussian, Inc.),
 the Gaussian 90(TM) system (copyright 1990, Gaussian, Inc.),
 the Gaussian 88(TM) system (copyright 1988, Gaussian, Inc.),
 the Gaussian 86(TM) system (copyright 1986, Carnegie Mellon
 University), and the Gaussian 82(TM) system (copyright 1983,
 Carnegie Mellon University). Gaussian is a federally registered
 trademark of Gaussian, Inc.
  
 This software contains proprietary and confidential information,
 including trade secrets, belonging to Gaussian, Inc.
  
 This software is provided under written license and may be
 used, copied, transmitted, or stored only in accord with that
 written license.
  
 The following legend is applicable only to US Government
 contracts under FAR:
  
                    RESTRICTED RIGHTS LEGEND
  
 Use, reproduction and disclosure by the US Government is
 subject to restrictions as set forth in subparagraphs (a)
 and (c) of the Commercial Computer Software - Restricted
 Rights clause in FAR 52.227-19.
  
 Gaussian, Inc.
 340 Quinnipiac St., Bldg. 40, Wallingford CT 06492
  
  
 ---------------------------------------------------------------
 Warning -- This program may not be used in any manner that
 competes with the business of Gaussian, Inc. or will provide
 assistance to any competitor of Gaussian, Inc.  The licensee
 of this program is prohibited from giving any competitor of
 Gaussian, Inc. access to this program.  By using this program,
 the user acknowledges that Gaussian, Inc. is engaged in the
 business of creating and licensing software in the field of
 computational chemistry and represents and warrants to the
 licensee that it is not a competitor of Gaussian, Inc. and that
 it will not use this program in any manner prohibited above.
 ---------------------------------------------------------------
  

 Cite this work as:
 Gaussian 09, Revision B.01,
 M. J. Frisch, G. W. Trucks, H. B. Schlegel, G. E. Scuseria, 
 M. A. Robb, J. R. Cheeseman, G. Scalmani, V. Barone, B. Mennucci, 
 G. A. Petersson, H. Nakatsuji, M. Caricato, X. Li, H. P. Hratchian, 
 A. F. Izmaylov, J. Bloino, G. Zheng, J. L. Sonnenberg, M. Hada, 
 M. Ehara, K. Toyota, R. Fukuda, J. Hasegawa, M. Ishida, T. Nakajima, 
 Y. Honda, O. Kitao, H. Nakai, T. Vreven, J. A. Montgomery, Jr., 
 J. E. Peralta, F. Ogliaro, M. Bearpark, J. J. Heyd, E. Brothers, 
 K. N. Kudin, V. N. Staroverov, T. Keith, R. Kobayashi, J. Normand, 
 K. Raghavachari, A. Rendell, J. C. Burant, S. S. Iyengar, J. Tomasi, 
 M. Cossi, N. Rega, J. M. Millam, M. Klene, J. E. Knox, J. B. Cross, 
 V. Bakken, C. Adamo, J. Jaramillo, R. Gomperts, R. E. Stratmann, 
 O. Yazyev, A. J. Austin, R. Cammi, C. Pomelli, J. W. Ochterski, 
 R. L. Martin, K. Morokuma, V. G. Zakrzewski, G. A. Voth, 
 P. Salvador, J. J. Dannenberg, S. Dapprich, A. D. Daniels, 
 O. Farkas, J. B. Foresman, J. V. Ortiz, J. Cioslowski, 
 and D. J. Fox, Gaussian, Inc., Wallingford CT, 2010.
 
 ******************************************
 Gaussian 09:  EM64L-G09RevB.01 12-Aug-2010
                24-Jan-2018 
 ******************************************
 %nproc=4
 Will use up to    4 processors via shared memory.
 %mem=60gb
 ------------------------------
 #B3LYP/6-311G** fopt test freq
 ------------------------------
 1/14=-1,18=20,19=15,26=3,38=1/1,3;
 2/9=110,12=2,14=103,17=6,18=5,40=1/2;
 3/5=4,6=6,7=101,11=2,16=1,25=1,30=1,71=1,74=-5/1,2,3;
 4//1;
 5/5=2,38=5/2;
 6/7=2,8=2,9=2,10=2,28=1/1;
 7//1,2,3,16;
 1/14=-1,18=20,19=15/3(2);
 2/9=110/2;
 99//99;
 2/9=110/2;
 3/5=4,6=6,7=101,11=2,16=1,25=1,30=1,71=1,74=-5/1,2,3;
 4/5=5,16=3/1;
 5/5=2,38=5/2;
 7//1,2,3,16;
 1/14=-1,18=20,19=15/3(-5);
 2/9=110/2;
 6/7=2,8=2,9=2,10=2,19=2,28=1/1;
 99/9=1/99;
 --------------------------
 Sugars/S-R-S-Fructuose.xyz
 --------------------------
 Symbolic Z-matrix:
 Charge =  0 Multiplicity = 1
 C                    -0.77118   0.46194   0.54959 
 O                    -0.32903  -0.15434   1.73947 
 H                    -0.33419   0.51741   2.4266 
 H                    -0.17429   1.3413    0.26265 
 H                    -1.81396   0.80507   0.60087 
 C                    -0.65048  -0.50935  -0.60467 
 O                    -0.19279  -1.62176  -0.49764 
 C                    -1.12987  -0.00363  -1.97103 
 C                    -0.0451   -0.27211  -3.02688 
 C                    -0.52434  -0.03277  -4.45899 
 C                     0.56824  -0.18886  -5.50214 
 H                     0.99311  -1.20187  -5.47435 
 H                     1.35226   0.54294  -5.29171 
 O                    -0.07616   0.06662  -6.75729 
 H                     0.59778   0.20231  -7.42818 
 H                    -2.00425  -0.62436  -2.23237 
 O                    -1.50397   1.36175  -1.85979 
 H                    -1.50574   1.72623  -2.75841 
 H                     0.20068  -1.33412  -2.93524 
 O                     1.11688   0.53474  -2.76358 
 H                     1.75953  -0.02161  -2.31947 
 H                    -1.31703  -0.76102  -4.68663 
 O                    -1.06736   1.29158  -4.55752 
 H                    -1.28769   1.43216  -5.48605 
 

 GradGradGradGradGradGradGradGradGradGradGradGradGradGradGradGradGradGrad
 Berny optimization.
 Initialization pass.
                           ----------------------------
                           !    Initial Parameters    !
                           ! (Angstroms and Degrees)  !
 --------------------------                            --------------------------
 ! Name  Definition              Value          Derivative Info.                !
 --------------------------------------------------------------------------------
 ! R1    R(1,2)                  1.4111         estimate D2E/DX2                !
 ! R2    R(1,4)                  1.1009         estimate D2E/DX2                !
 ! R3    R(1,5)                  1.099          estimate D2E/DX2                !
 ! R4    R(1,6)                  1.5134         estimate D2E/DX2                !
 ! R5    R(2,3)                  0.9609         estimate D2E/DX2                !
 ! R6    R(6,7)                  1.2076         estimate D2E/DX2                !
 ! R7    R(6,8)                  1.5338         estimate D2E/DX2                !
 ! R8    R(8,9)                  1.5374         estimate D2E/DX2                !
 ! R9    R(8,16)                 1.1037         estimate D2E/DX2                !
 ! R10   R(8,17)                 1.4201         estimate D2E/DX2                !
 ! R11   R(9,10)                 1.529          estimate D2E/DX2                !
 ! R12   R(9,19)                 1.0939         estimate D2E/DX2                !
 ! R13   R(9,20)                 1.4389         estimate D2E/DX2                !
 ! R14   R(10,11)                1.5186         estimate D2E/DX2                !
 ! R15   R(10,22)                1.1002         estimate D2E/DX2                !
 ! R16   R(10,23)                1.4347         estimate D2E/DX2                !
 ! R17   R(11,12)                1.0989         estimate D2E/DX2                !
 ! R18   R(11,13)                1.0929         estimate D2E/DX2                !
 ! R19   R(11,14)                1.4338         estimate D2E/DX2                !
 ! R20   R(14,15)                0.9606         estimate D2E/DX2                !
 ! R21   R(17,18)                0.9697         estimate D2E/DX2                !
 ! R22   R(18,23)                1.9021         estimate D2E/DX2                !
 ! R23   R(20,21)                0.959          estimate D2E/DX2                !
 ! R24   R(23,24)                0.9646         estimate D2E/DX2                !
 ! A1    A(2,1,4)              113.5017         estimate D2E/DX2                !
 ! A2    A(2,1,5)              113.2246         estimate D2E/DX2                !
 ! A3    A(2,1,6)              109.7464         estimate D2E/DX2                !
 ! A4    A(4,1,5)              106.0948         estimate D2E/DX2                !
 ! A5    A(4,1,6)              105.7013         estimate D2E/DX2                !
 ! A6    A(5,1,6)              108.1591         estimate D2E/DX2                !
 ! A7    A(1,2,3)              107.217          estimate D2E/DX2                !
 ! A8    A(1,6,7)              123.6297         estimate D2E/DX2                !
 ! A9    A(1,6,8)              116.2897         estimate D2E/DX2                !
 ! A10   A(7,6,8)              120.0747         estimate D2E/DX2                !
 ! A11   A(6,8,9)              109.493          estimate D2E/DX2                !
 ! A12   A(6,8,16)             105.8497         estimate D2E/DX2                !
 ! A13   A(6,8,17)             109.243          estimate D2E/DX2                !
 ! A14   A(9,8,16)             107.3466         estimate D2E/DX2                !
 ! A15   A(9,8,17)             114.0529         estimate D2E/DX2                !
 ! A16   A(16,8,17)            110.524          estimate D2E/DX2                !
 ! A17   A(8,9,10)             113.2512         estimate D2E/DX2                !
 ! A18   A(8,9,19)             105.6958         estimate D2E/DX2                !
 ! A19   A(8,9,20)             110.2544         estimate D2E/DX2                !
 ! A20   A(10,9,19)            107.5088         estimate D2E/DX2                !
 ! A21   A(10,9,20)            109.6767         estimate D2E/DX2                !
 ! A22   A(19,9,20)            110.3412         estimate D2E/DX2                !
 ! A23   A(9,10,11)            113.6897         estimate D2E/DX2                !
 ! A24   A(9,10,22)            108.4202         estimate D2E/DX2                !
 ! A25   A(9,10,23)            109.1132         estimate D2E/DX2                !
 ! A26   A(11,10,22)           107.9501         estimate D2E/DX2                !
 ! A27   A(11,10,23)           108.6632         estimate D2E/DX2                !
 ! A28   A(22,10,23)           108.9102         estimate D2E/DX2                !
 ! A29   A(10,11,12)           110.8278         estimate D2E/DX2                !
 ! A30   A(10,11,13)           108.3625         estimate D2E/DX2                !
 ! A31   A(10,11,14)           105.049          estimate D2E/DX2                !
 ! A32   A(12,11,13)           109.574          estimate D2E/DX2                !
 ! A33   A(12,11,14)           111.1104         estimate D2E/DX2                !
 ! A34   A(13,11,14)           111.8164         estimate D2E/DX2                !
 ! A35   A(11,14,15)           108.7377         estimate D2E/DX2                !
 ! A36   A(8,17,18)            106.8147         estimate D2E/DX2                !
 ! A37   A(9,20,21)            107.4921         estimate D2E/DX2                !
 ! A38   A(10,23,24)           106.6827         estimate D2E/DX2                !
 ! D1    D(4,1,2,3)             56.2124         estimate D2E/DX2                !
 ! D2    D(5,1,2,3)            -64.8224         estimate D2E/DX2                !
 ! D3    D(6,1,2,3)            174.2229         estimate D2E/DX2                !
 ! D4    D(2,1,6,7)             -2.5251         estimate D2E/DX2                !
 ! D5    D(2,1,6,8)            178.3584         estimate D2E/DX2                !
 ! D6    D(4,1,6,7)            120.2281         estimate D2E/DX2                !
 ! D7    D(4,1,6,8)            -58.8884         estimate D2E/DX2                !
 ! D8    D(5,1,6,7)           -126.4891         estimate D2E/DX2                !
 ! D9    D(5,1,6,8)             54.3944         estimate D2E/DX2                !
 ! D10   D(1,6,8,9)            130.0971         estimate D2E/DX2                !
 ! D11   D(1,6,8,16)          -114.4811         estimate D2E/DX2                !
 ! D12   D(1,6,8,17)             4.5399         estimate D2E/DX2                !
 ! D13   D(7,6,8,9)            -49.0528         estimate D2E/DX2                !
 ! D14   D(7,6,8,16)            66.3689         estimate D2E/DX2                !
 ! D15   D(7,6,8,17)          -174.6101         estimate D2E/DX2                !
 ! D16   D(6,8,9,10)           169.7236         estimate D2E/DX2                !
 ! D17   D(6,8,9,19)            52.2805         estimate D2E/DX2                !
 ! D18   D(6,8,9,20)           -66.9659         estimate D2E/DX2                !
 ! D19   D(16,8,9,10)           55.2612         estimate D2E/DX2                !
 ! D20   D(16,8,9,19)          -62.1819         estimate D2E/DX2                !
 ! D21   D(16,8,9,20)          178.5717         estimate D2E/DX2                !
 ! D22   D(17,8,9,10)          -67.5347         estimate D2E/DX2                !
 ! D23   D(17,8,9,19)          175.0223         estimate D2E/DX2                !
 ! D24   D(17,8,9,20)           55.7759         estimate D2E/DX2                !
 ! D25   D(6,8,17,18)          161.0297         estimate D2E/DX2                !
 ! D26   D(9,8,17,18)           38.1516         estimate D2E/DX2                !
 ! D27   D(16,8,17,18)         -82.8941         estimate D2E/DX2                !
 ! D28   D(8,9,10,11)          175.4533         estimate D2E/DX2                !
 ! D29   D(8,9,10,22)          -64.4905         estimate D2E/DX2                !
 ! D30   D(8,9,10,23)           53.9946         estimate D2E/DX2                !
 ! D31   D(19,9,10,11)         -68.1687         estimate D2E/DX2                !
 ! D32   D(19,9,10,22)          51.8875         estimate D2E/DX2                !
 ! D33   D(19,9,10,23)         170.3726         estimate D2E/DX2                !
 ! D34   D(20,9,10,11)          51.8253         estimate D2E/DX2                !
 ! D35   D(20,9,10,22)         171.8814         estimate D2E/DX2                !
 ! D36   D(20,9,10,23)         -69.6335         estimate D2E/DX2                !
 ! D37   D(8,9,20,21)           99.7826         estimate D2E/DX2                !
 ! D38   D(10,9,20,21)        -134.8492         estimate D2E/DX2                !
 ! D39   D(19,9,20,21)         -16.5986         estimate D2E/DX2                !
 ! D40   D(9,10,11,12)          59.6829         estimate D2E/DX2                !
 ! D41   D(9,10,11,13)         -60.5787         estimate D2E/DX2                !
 ! D42   D(9,10,11,14)         179.7699         estimate D2E/DX2                !
 ! D43   D(22,10,11,12)        -60.6387         estimate D2E/DX2                !
 ! D44   D(22,10,11,13)        179.0997         estimate D2E/DX2                !
 ! D45   D(22,10,11,14)         59.4483         estimate D2E/DX2                !
 ! D46   D(23,10,11,12)       -178.6079         estimate D2E/DX2                !
 ! D47   D(23,10,11,13)         61.1305         estimate D2E/DX2                !
 ! D48   D(23,10,11,14)        -58.521          estimate D2E/DX2                !
 ! D49   D(9,10,23,24)         175.2492         estimate D2E/DX2                !
 ! D50   D(11,10,23,24)         50.7861         estimate D2E/DX2                !
 ! D51   D(22,10,23,24)        -66.5727         estimate D2E/DX2                !
 ! D52   D(10,11,14,15)        165.802          estimate D2E/DX2                !
 ! D53   D(12,11,14,15)        -74.2987         estimate D2E/DX2                !
 ! D54   D(13,11,14,15)         48.4788         estimate D2E/DX2                !
 --------------------------------------------------------------------------------
 Trust Radius=3.00D-01 FncErr=1.00D-07 GrdErr=1.00D-06
 Number of steps in this run=    126 maximum allowed number of steps=    144.
 GradGradGradGradGradGradGradGradGradGradGradGradGradGradGradGradGradGrad

                          Input orientation:                          
 ---------------------------------------------------------------------
 Center     Atomic      Atomic             Coordinates (Angstroms)
 Number     Number       Type             X           Y           Z
 ---------------------------------------------------------------------
      1          6           0       -0.771179    0.461937    0.549594
      2          8           0       -0.329034   -0.154338    1.739466
      3          1           0       -0.334186    0.517405    2.426604
      4          1           0       -0.174291    1.341302    0.262646
      5          1           0       -1.813957    0.805070    0.600874
      6          6           0       -0.650479   -0.509351   -0.604669
      7          8           0       -0.192792   -1.621763   -0.497637
      8          6           0       -1.129872   -0.003633   -1.971031
      9          6           0       -0.045103   -0.272112   -3.026879
     10          6           0       -0.524336   -0.032765   -4.458993
     11          6           0        0.568236   -0.188858   -5.502139
     12          1           0        0.993114   -1.201866   -5.474346
     13          1           0        1.352257    0.542937   -5.291714
     14          8           0       -0.076163    0.066615   -6.757285
     15          1           0        0.597782    0.202314   -7.428176
     16          1           0       -2.004252   -0.624364   -2.232370
     17          8           0       -1.503969    1.361745   -1.859792
     18          1           0       -1.505736    1.726225   -2.758408
     19          1           0        0.200675   -1.334123   -2.935237
     20          8           0        1.116876    0.534740   -2.763577
     21          1           0        1.759531   -0.021611   -2.319466
     22          1           0       -1.317026   -0.761021   -4.686628
     23          8           0       -1.067358    1.291585   -4.557517
     24          1           0       -1.287686    1.432160   -5.486046
 ---------------------------------------------------------------------
                    Distance matrix (angstroms):
                    1          2          3          4          5
     1  C    0.000000
     2  O    1.411057   0.000000
     3  H    1.928006   0.960949   0.000000
     4  H    1.100862   2.107577   2.321010   0.000000
     5  H    1.098979   2.102820   2.367649   1.757967   0.000000
     6  C    1.513371   2.392557   3.216036   2.098549   2.129488
     7  O    2.402713   2.678904   3.625909   3.059106   3.118400
     8  C    2.588236   3.798926   4.499310   2.776922   2.781487
     9  C    3.722522   4.776247   5.517915   3.666165   4.177291
    10  C    5.039008   6.202727   6.910158   4.929956   5.288416
    11  C    6.232258   7.297063   8.011126   6.010448   6.626425
    12  H    6.493753   7.408406   8.194061   6.383073   6.986826
    13  H    6.215820   7.262949   7.900454   5.815381   6.694492
    14  O    7.350497   8.503384   9.198565   7.135397   7.596562
    15  H    8.098535   9.221272   9.903764   7.812947   8.405084
    16  H    3.231075   4.336215   5.079251   3.665748   3.179114
    17  O    2.674281   4.078436   4.522664   2.504637   2.541822
    18  H    3.616749   5.015178   5.451433   3.323805   3.496899
    19  H    4.039106   4.850292   5.697681   4.186282   4.597714
    20  O    3.814073   4.779423   5.389236   3.387577   4.470167
    21  H    3.856140   4.566689   5.215301   3.502071   4.688454
    22  H    5.404775   6.529845   7.293724   5.497356   5.536900
    23  O    5.182530   6.502908   7.065044   4.902450   5.234797
    24  H    6.134905   7.459491   8.022217   5.856224   6.141726
                    6          7          8          9         10
     6  C    0.000000
     7  O    1.207640   0.000000
     8  C    1.533791   2.380620   0.000000
     9  C    2.507960   2.870616   1.537407   0.000000
    10  C    3.885725   4.281025   2.560757   1.529020   0.000000
    11  C    5.056995   5.260933   3.922576   2.551476   1.518628
    12  H    5.186013   5.133256   4.268026   2.816457   2.168039
    13  H    5.204484   5.482361   4.181703   2.783235   2.132243
    14  O    6.206147   6.484398   4.901374   3.745882   2.343690
    15  H    6.973154   7.210037   5.727795   4.473231   3.182838
    16  H    2.120222   2.699165   1.103696   2.143266   2.738246
    17  O    2.409311   3.532134   1.420063   2.481909   3.108084
    18  H    3.219916   4.247815   1.937433   2.489754   2.636130
    19  H    2.614624   2.485849   2.114297   1.093925   2.130964
    20  O    2.979019   3.391197   2.442509   1.438935   2.426947
    21  H    2.997760   3.113055   2.910392   1.954453   3.129497
    22  H    4.143671   4.421812   2.825443   2.147461   1.100242
    23  O    4.363733   5.072976   2.893338   2.415162   1.434741
    24  H    5.291818   5.950585   3.800229   3.239762   1.945134
                   11         12         13         14         15
    11  C    0.000000
    12  H    1.098853   0.000000
    13  H    1.092928   1.790719   0.000000
    14  O    1.433844   2.097220   2.101229   0.000000
    15  H    1.965581   2.438332   2.291228   0.960578   0.000000
    16  H    4.183151   4.452878   4.689172   4.966874   5.869444
    17  O    4.468232   5.086504   4.539445   5.263215   6.063707
    18  H    3.936618   4.711081   3.998241   4.559496   5.343578
    19  H    2.834734   2.663180   3.225287   4.080044   4.764959
    20  O    2.885190   3.221705   2.539084   4.194304   4.705151
    21  H    3.402435   3.454514   3.052678   4.803311   5.243922
    22  H    2.132286   2.480240   3.031750   2.551929   3.480027
    23  O    2.399831   3.362056   2.637054   2.705919   3.492833
    24  H    2.464225   3.484290   2.792451   2.224534   2.973109
                   16         17         18         19         20
    16  H    0.000000
    17  O    2.081760   0.000000
    18  H    2.459777   0.969721   0.000000
    19  H    2.420637   3.366021   3.508395   0.000000
    20  O    3.371519   2.893025   2.880583   2.088430   0.000000
    21  H    3.812736   3.574270   3.729554   2.128824   0.959045
    22  H    2.552320   3.540068   3.152782   2.387307   3.361696
    23  O    3.155145   2.733729   1.902073   3.336771   2.926075
    24  H    3.915248   3.633381   2.752095   4.046501   3.741540
                   21         22         23         24
    21  H    0.000000
    22  H    3.951631   0.000000
    23  O    3.837272   2.071761   0.000000
    24  H    4.628845   2.334518   0.964610   0.000000
 Stoichiometry    C6H12O6
 Framework group  C1[X(C6H12O6)]
 Deg. of freedom    66
 Full point group                 C1      NOp   1
 Largest Abelian subgroup         C1      NOp   1
 Largest concise Abelian subgroup C1      NOp   1
                         Standard orientation:                         
 ---------------------------------------------------------------------
 Center     Atomic      Atomic             Coordinates (Angstroms)
 Number     Number       Type             X           Y           Z
 ---------------------------------------------------------------------
      1          6           0       -3.077249    0.501002    0.228187
      2          8           0       -4.262944   -0.263129    0.264442
      3          1           0       -4.907918    0.236523    0.772162
      4          1           0       -2.693612    0.763720    1.226034
      5          1           0       -3.189679    1.449971   -0.314558
      6          6           0       -1.975872   -0.295393   -0.437406
      7          8           0       -2.111697   -1.431606   -0.823367
      8          6           0       -0.623906    0.412345   -0.591698
      9          6           0        0.495944   -0.500454   -0.066004
     10          6           0        1.897782    0.008698   -0.402923
     11          6           0        3.012173   -0.825422    0.204210
     12          1           0        2.958459   -1.864905   -0.148025
     13          1           0        2.906799   -0.801437    1.291782
     14          8           0        4.225928   -0.195915   -0.227563
     15          1           0        4.954203   -0.536879    0.297862
     16          1           0       -0.468424    0.531816   -1.677837
     17          8           0       -0.683985    1.680210    0.045082
     18          1           0        0.231521    1.961134    0.197698
     19          1           0        0.361828   -1.458051   -0.577566
     20          8           0        0.371862   -0.672012    1.357268
     21          1           0       -0.052463   -1.518466    1.509683
     22          1           0        2.019814   -0.006740   -1.496268
     23          8           0        2.030869    1.359906    0.060766
     24          1           0        2.945975    1.619035   -0.100182
 ---------------------------------------------------------------------
 Rotational constants (GHZ):      2.3422890      0.4195998      0.3909052
 Standard basis: 6-311G(d,p) (5D, 7F)
 There are   288 symmetry adapted basis functions of A   symmetry.
 Integral buffers will be    131072 words long.
 Raffenetti 2 integral format.
 Two-electron integral symmetry is turned on.
   288 basis functions,   480 primitive gaussians,   300 cartesian basis functions
    48 alpha electrons       48 beta electrons
       nuclear repulsion energy       784.7026151138 Hartrees.
 NAtoms=   24 NActive=   24 NUniq=   24 SFac= 1.00D+00 NAtFMM=   50 NAOKFM=F Big=F
 One-electron integrals computed using PRISM.
 NBasis=   288 RedAO= T  NBF=   288
 NBsUse=   288 1.00D-06 NBFU=   288
 Harris functional with IExCor=  402 diagonalized for initial guess.
 ExpMin= 1.03D-01 ExpMax= 8.59D+03 ExpMxC= 1.30D+03 IAcc=1 IRadAn=         1 AccDes= 0.00D+00
 HarFok:  IExCor=  402 AccDes= 0.00D+00 IRadAn=         1 IDoV= 1
 ScaDFX=  1.000000  1.000000  1.000000  1.000000
 FoFCou: FMM=F IPFlag=           0 FMFlag=      100000 FMFlg1=           0
         NFxFlg=           0 DoJE=T BraDBF=F KetDBF=T FulRan=T
         Omega=  0.000000  0.000000  1.000000  0.000000  0.000000 ICntrl=     500 IOpCl=  0
         NMat0=    1 NMatS0=    1 NMatT0=    0 NMatD0=    1 NMtDS0=    0 NMtDT0=    0
         I1Cent=           4 NGrid=           0.
 Petite list used in FoFCou.
 Initial guess orbital symmetries:
       Occupied  (A) (A) (A) (A) (A) (A) (A) (A) (A) (A) (A) (A)
                 (A) (A) (A) (A) (A) (A) (A) (A) (A) (A) (A) (A)
                 (A) (A) (A) (A) (A) (A) (A) (A) (A) (A) (A) (A)
                 (A) (A) (A) (A) (A) (A) (A) (A) (A) (A) (A) (A)
       Virtual   (A) (A) (A) (A) (A) (A) (A) (A) (A) (A) (A) (A)
                 (A) (A) (A) (A) (A) (A) (A) (A) (A) (A) (A) (A)
                 (A) (A) (A) (A) (A) (A) (A) (A) (A) (A) (A) (A)
                 (A) (A) (A) (A) (A) (A) (A) (A) (A) (A) (A) (A)
                 (A) (A) (A) (A) (A) (A) (A) (A) (A) (A) (A) (A)
                 (A) (A) (A) (A) (A) (A) (A) (A) (A) (A) (A) (A)
                 (A) (A) (A) (A) (A) (A) (A) (A) (A) (A) (A) (A)
                 (A) (A) (A) (A) (A) (A) (A) (A) (A) (A) (A) (A)
                 (A) (A) (A) (A) (A) (A) (A) (A) (A) (A) (A) (A)
                 (A) (A) (A) (A) (A) (A) (A) (A) (A) (A) (A) (A)
                 (A) (A) (A) (A) (A) (A) (A) (A) (A) (A) (A) (A)
                 (A) (A) (A) (A) (A) (A) (A) (A) (A) (A) (A) (A)
                 (A) (A) (A) (A) (A) (A) (A) (A) (A) (A) (A) (A)
                 (A) (A) (A) (A) (A) (A) (A) (A) (A) (A) (A) (A)
                 (A) (A) (A) (A) (A) (A) (A) (A) (A) (A) (A) (A)
                 (A) (A) (A) (A) (A) (A) (A) (A) (A) (A) (A) (A)
                 (A) (A) (A) (A) (A) (A) (A) (A) (A) (A) (A) (A)
                 (A) (A) (A) (A) (A) (A) (A) (A) (A) (A) (A) (A)
                 (A) (A) (A) (A) (A) (A) (A) (A) (A) (A) (A) (A)
                 (A) (A) (A) (A) (A) (A) (A) (A) (A) (A) (A) (A)
 The electronic state of the initial guess is 1-A.
 Requested convergence on RMS density matrix=1.00D-08 within 128 cycles.
 Requested convergence on MAX density matrix=1.00D-06.
 Requested convergence on             energy=1.00D-06.
 No special actions if energy rises.
 Keep R1 ints in memory in canonical form, NReq=1033417329.
 Integral accuracy reduced to 1.0D-05 until final iterations.
 Initial convergence to 1.0D-05 achieved.  Increase integral accuracy.
 SCF Done:  E(RB3LYP) =  -687.360276561     A.U. after   14 cycles
             Convg  =    0.4287D-08             -V/T =  2.0031

 **********************************************************************

            Population analysis using the SCF density.

 **********************************************************************

 Orbital symmetries:
       Occupied  (A) (A) (A) (A) (A) (A) (A) (A) (A) (A) (A) (A)
                 (A) (A) (A) (A) (A) (A) (A) (A) (A) (A) (A) (A)
                 (A) (A) (A) (A) (A) (A) (A) (A) (A) (A) (A) (A)
                 (A) (A) (A) (A) (A) (A) (A) (A) (A) (A) (A) (A)
       Virtual   (A) (A) (A) (A) (A) (A) (A) (A) (A) (A) (A) (A)
                 (A) (A) (A) (A) (A) (A) (A) (A) (A) (A) (A) (A)
                 (A) (A) (A) (A) (A) (A) (A) (A) (A) (A) (A) (A)
                 (A) (A) (A) (A) (A) (A) (A) (A) (A) (A) (A) (A)
                 (A) (A) (A) (A) (A) (A) (A) (A) (A) (A) (A) (A)
                 (A) (A) (A) (A) (A) (A) (A) (A) (A) (A) (A) (A)
                 (A) (A) (A) (A) (A) (A) (A) (A) (A) (A) (A) (A)
                 (A) (A) (A) (A) (A) (A) (A) (A) (A) (A) (A) (A)
                 (A) (A) (A) (A) (A) (A) (A) (A) (A) (A) (A) (A)
                 (A) (A) (A) (A) (A) (A) (A) (A) (A) (A) (A) (A)
                 (A) (A) (A) (A) (A) (A) (A) (A) (A) (A) (A) (A)
                 (A) (A) (A) (A) (A) (A) (A) (A) (A) (A) (A) (A)
                 (A) (A) (A) (A) (A) (A) (A) (A) (A) (A) (A) (A)
                 (A) (A) (A) (A) (A) (A) (A) (A) (A) (A) (A) (A)
                 (A) (A) (A) (A) (A) (A) (A) (A) (A) (A) (A) (A)
                 (A) (A) (A) (A) (A) (A) (A) (A) (A) (A) (A) (A)
                 (A) (A) (A) (A) (A) (A) (A) (A) (A) (A) (A) (A)
                 (A) (A) (A) (A) (A) (A) (A) (A) (A) (A) (A) (A)
                 (A) (A) (A) (A) (A) (A) (A) (A) (A) (A) (A) (A)
                 (A) (A) (A) (A) (A) (A) (A) (A) (A) (A) (A) (A)
 The electronic state is 1-A.
 Alpha  occ. eigenvalues --  -19.13682 -19.13121 -19.12633 -19.11292 -19.10970
 Alpha  occ. eigenvalues --  -19.10646 -10.25699 -10.23828 -10.23778 -10.22997
 Alpha  occ. eigenvalues --  -10.22912 -10.21940  -1.05951  -1.05356  -1.03698
 Alpha  occ. eigenvalues --   -1.02318  -1.01905  -1.01285  -0.79210  -0.75046
 Alpha  occ. eigenvalues --   -0.71957  -0.65966  -0.59773  -0.55898  -0.53984
 Alpha  occ. eigenvalues --   -0.53426  -0.52377  -0.51822  -0.48727  -0.48490
 Alpha  occ. eigenvalues --   -0.46908  -0.45817  -0.44486  -0.42851  -0.42580
 Alpha  occ. eigenvalues --   -0.41239  -0.38149  -0.37087  -0.36650  -0.35346
 Alpha  occ. eigenvalues --   -0.34726  -0.34131  -0.30352  -0.29643  -0.29236
 Alpha  occ. eigenvalues --   -0.27769  -0.26833  -0.24840
 Alpha virt. eigenvalues --   -0.02016   0.01506   0.02593   0.04038   0.05857
 Alpha virt. eigenvalues --    0.06533   0.08425   0.09333   0.10838   0.11471
 Alpha virt. eigenvalues --    0.12525   0.12817   0.13365   0.15618   0.17263
 Alpha virt. eigenvalues --    0.17916   0.19080   0.20421   0.22442   0.24950
 Alpha virt. eigenvalues --    0.25712   0.27521   0.28763   0.33605   0.35215
 Alpha virt. eigenvalues --    0.36339   0.37693   0.39069   0.39177   0.40129
 Alpha virt. eigenvalues --    0.41067   0.42831   0.44016   0.45321   0.46474
 Alpha virt. eigenvalues --    0.48185   0.48687   0.49356   0.50211   0.51186
 Alpha virt. eigenvalues --    0.52074   0.53981   0.54744   0.55199   0.57328
 Alpha virt. eigenvalues --    0.57855   0.58211   0.59413   0.61477   0.62046
 Alpha virt. eigenvalues --    0.64077   0.65642   0.67539   0.67633   0.70558
 Alpha virt. eigenvalues --    0.75161   0.77341   0.77552   0.80124   0.83577
 Alpha virt. eigenvalues --    0.84174   0.85004   0.85234   0.86659   0.88442
 Alpha virt. eigenvalues --    0.89036   0.90708   0.93225   0.94632   0.94811
 Alpha virt. eigenvalues --    0.97558   0.98629   0.99993   1.02854   1.05545
 Alpha virt. eigenvalues --    1.06887   1.10892   1.13026   1.16415   1.18349
 Alpha virt. eigenvalues --    1.21311   1.23767   1.25505   1.27953   1.29029
 Alpha virt. eigenvalues --    1.32833   1.35046   1.36091   1.37606   1.38216
 Alpha virt. eigenvalues --    1.39612   1.39915   1.41352   1.44074   1.45771
 Alpha virt. eigenvalues --    1.47314   1.48110   1.49087   1.50179   1.52017
 Alpha virt. eigenvalues --    1.52747   1.54599   1.55383   1.55923   1.58539
 Alpha virt. eigenvalues --    1.59795   1.60467   1.60621   1.64304   1.64829
 Alpha virt. eigenvalues --    1.66503   1.66728   1.68342   1.68942   1.69811
 Alpha virt. eigenvalues --    1.72700   1.76489   1.78773   1.80757   1.82887
 Alpha virt. eigenvalues --    1.87500   1.87875   1.91877   1.94172   1.94238
 Alpha virt. eigenvalues --    1.94405   1.96420   1.98577   1.99816   2.01146
 Alpha virt. eigenvalues --    2.04011   2.06558   2.07739   2.10951   2.11914
 Alpha virt. eigenvalues --    2.13754   2.18574   2.20189   2.22092   2.25956
 Alpha virt. eigenvalues --    2.27385   2.27961   2.33692   2.37171   2.38067
 Alpha virt. eigenvalues --    2.40699   2.41503   2.44685   2.45009   2.47308
 Alpha virt. eigenvalues --    2.48836   2.50281   2.52305   2.53160   2.56688
 Alpha virt. eigenvalues --    2.58200   2.63028   2.66744   2.70274   2.76817
 Alpha virt. eigenvalues --    2.78451   2.80485   2.81973   2.86428   2.88270
 Alpha virt. eigenvalues --    2.89056   2.90170   2.92013   2.94029   2.96221
 Alpha virt. eigenvalues --    2.99593   3.03942   3.09598   3.10353   3.13002
 Alpha virt. eigenvalues --    3.13736   3.14026   3.15244   3.17466   3.18936
 Alpha virt. eigenvalues --    3.20710   3.21188   3.22873   3.26772   3.27268
 Alpha virt. eigenvalues --    3.27615   3.31326   3.32486   3.35925   3.37713
 Alpha virt. eigenvalues --    3.43642   3.51964   3.59371   3.76402   3.77438
 Alpha virt. eigenvalues --    3.77661   3.78264   3.79233   3.83061   3.87215
 Alpha virt. eigenvalues --    3.89165   3.90473   3.92052   3.93099   3.94048
 Alpha virt. eigenvalues --    4.01858   4.06112   4.11723   4.19622   4.30977
 Alpha virt. eigenvalues --    4.85185   4.87176   4.88292   4.91312   4.93305
 Alpha virt. eigenvalues --    4.97341   5.05076   5.24019   5.26803   5.27025
 Alpha virt. eigenvalues --    5.33402   5.37649   5.56438   5.60044   5.62737
 Alpha virt. eigenvalues --    5.63712   5.68264   5.74938  23.67765  23.74449
 Alpha virt. eigenvalues --   23.77022  23.78932  23.80050  23.83607  49.85969
 Alpha virt. eigenvalues --   49.89070  49.90528  49.91947  49.95823  49.98657
          Condensed to atoms (all electrons):
              1          2          3          4          5          6
     1  C    4.931861   0.282755  -0.037783   0.376628   0.383770   0.221106
     2  O    0.282755   7.886028   0.307805  -0.029061  -0.031997  -0.040117
     3  H   -0.037783   0.307805   0.492315  -0.006777  -0.003990   0.010630
     4  H    0.376628  -0.029061  -0.006777   0.596497  -0.039974  -0.041479
     5  H    0.383770  -0.031997  -0.003990  -0.039974   0.596112  -0.038709
     6  C    0.221106  -0.040117   0.010630  -0.041479  -0.038709   5.061328
     7  O   -0.078783   0.003111  -0.000146   0.000369   0.001812   0.636749
     8  C   -0.118960   0.002541  -0.000696   0.008396   0.009736   0.179755
     9  C    0.006183   0.000041   0.000024  -0.005188   0.001929  -0.037140
    10  C   -0.000249   0.000000  -0.000001   0.000093   0.000042   0.008698
    11  C    0.000011   0.000000   0.000000  -0.000008   0.000001  -0.000387
    12  H   -0.000004   0.000000   0.000000   0.000001   0.000000   0.000010
    13  H    0.000003   0.000000   0.000000  -0.000010   0.000000  -0.000116
    14  O    0.000000   0.000000   0.000000   0.000000   0.000000   0.000001
    15  H    0.000000   0.000000   0.000000   0.000000   0.000000  -0.000001
    16  H    0.005913  -0.000014   0.000030   0.002371  -0.003405  -0.049851
    17  O    0.009819   0.000168   0.000018   0.009791   0.004851  -0.050479
    18  H   -0.001334   0.000008  -0.000002   0.000380   0.000047   0.005104
    19  H    0.003339  -0.000041   0.000010   0.000061  -0.000305  -0.014871
    20  O   -0.002519   0.000000  -0.000007   0.006045  -0.000109   0.015665
    21  H   -0.000121   0.000017   0.000000  -0.000294   0.000030   0.004110
    22  H   -0.000029   0.000000   0.000000  -0.000008   0.000003  -0.000419
    23  O    0.000000   0.000000   0.000000  -0.000010   0.000004  -0.000060
    24  H   -0.000003   0.000000   0.000000   0.000000   0.000000   0.000104
              7          8          9         10         11         12
     1  C   -0.078783  -0.118960   0.006183  -0.000249   0.000011  -0.000004
     2  O    0.003111   0.002541   0.000041   0.000000   0.000000   0.000000
     3  H   -0.000146  -0.000696   0.000024  -0.000001   0.000000   0.000000
     4  H    0.000369   0.008396  -0.005188   0.000093  -0.000008   0.000001
     5  H    0.001812   0.009736   0.001929   0.000042   0.000001   0.000000
     6  C    0.636749   0.179755  -0.037140   0.008698  -0.000387   0.000010
     7  O    7.799191  -0.090588  -0.000462  -0.000238   0.000012  -0.000044
     8  C   -0.090588   5.263102   0.269591  -0.074187   0.008802  -0.000336
     9  C   -0.000462   0.269591   5.156814   0.262764  -0.043045   0.006568
    10  C   -0.000238  -0.074187   0.262764   5.156833   0.307707  -0.049821
    11  C    0.000012   0.008802  -0.043045   0.307707   4.783346   0.381793
    12  H   -0.000044  -0.000336   0.006568  -0.049821   0.381793   0.643955
    13  H   -0.000001   0.000316  -0.009380  -0.041281   0.383679  -0.041031
    14  O    0.000000  -0.000062   0.004092  -0.055898   0.271286  -0.034701
    15  H    0.000000   0.000029  -0.000692   0.009314  -0.033693  -0.002323
    16  H    0.003633   0.375455  -0.047567  -0.002206   0.000194  -0.000092
    17  O    0.001746   0.244344  -0.031799  -0.006820  -0.000178   0.000014
    18  H   -0.000247  -0.035578  -0.015072  -0.006655   0.001301  -0.000127
    19  H    0.026108  -0.048432   0.364252  -0.036674  -0.005736   0.003670
    20  O   -0.000957  -0.085797   0.249200  -0.065448  -0.000198  -0.000465
    21  H    0.001192   0.001379  -0.029565   0.006485   0.000862  -0.000303
    22  H   -0.000032  -0.009014  -0.036137   0.376646  -0.037524  -0.006628
    23  O   -0.000001   0.000335  -0.045602   0.204489  -0.025930   0.005553
    24  H    0.000000  -0.000344   0.011850  -0.046593  -0.009332   0.001891
             13         14         15         16         17         18
     1  C    0.000003   0.000000   0.000000   0.005913   0.009819  -0.001334
     2  O    0.000000   0.000000   0.000000  -0.000014   0.000168   0.000008
     3  H    0.000000   0.000000   0.000000   0.000030   0.000018  -0.000002
     4  H   -0.000010   0.000000   0.000000   0.002371   0.009791   0.000380
     5  H    0.000000   0.000000   0.000000  -0.003405   0.004851   0.000047
     6  C   -0.000116   0.000001  -0.000001  -0.049851  -0.050479   0.005104
     7  O   -0.000001   0.000000   0.000000   0.003633   0.001746  -0.000247
     8  C    0.000316  -0.000062   0.000029   0.375455   0.244344  -0.035578
     9  C   -0.009380   0.004092  -0.000692  -0.047567  -0.031799  -0.015072
    10  C   -0.041281  -0.055898   0.009314  -0.002206  -0.006820  -0.006655
    11  C    0.383679   0.271286  -0.033693   0.000194  -0.000178   0.001301
    12  H   -0.041031  -0.034701  -0.002323  -0.000092   0.000014  -0.000127
    13  H    0.587886  -0.031527  -0.006686  -0.000135  -0.000035   0.000179
    14  O   -0.031527   7.935152   0.311812  -0.000015   0.000000  -0.000034
    15  H   -0.006686   0.311812   0.471409   0.000002   0.000000   0.000002
    16  H   -0.000135  -0.000015   0.000002   0.601447  -0.027551  -0.000085
    17  O   -0.000035   0.000000   0.000000  -0.027551   7.945678   0.328150
    18  H    0.000179  -0.000034   0.000002  -0.000085   0.328150   0.414079
    19  H    0.000488  -0.000179  -0.000002   0.010473   0.006054   0.000090
    20  O    0.022085   0.000031   0.000005   0.003947   0.002205   0.004152
    21  H   -0.000944  -0.000002  -0.000009  -0.000325   0.000082  -0.000437
    22  H    0.013377   0.004619  -0.000628   0.000347   0.000164   0.001217
    23  O    0.005206  -0.006470   0.000199   0.000222  -0.012063   0.043550
    24  H   -0.002474   0.029232  -0.001542  -0.000193   0.000365  -0.002207
             19         20         21         22         23         24
     1  C    0.003339  -0.002519  -0.000121  -0.000029   0.000000  -0.000003
     2  O   -0.000041   0.000000   0.000017   0.000000   0.000000   0.000000
     3  H    0.000010  -0.000007   0.000000   0.000000   0.000000   0.000000
     4  H    0.000061   0.006045  -0.000294  -0.000008  -0.000010   0.000000
     5  H   -0.000305  -0.000109   0.000030   0.000003   0.000004   0.000000
     6  C   -0.014871   0.015665   0.004110  -0.000419  -0.000060   0.000104
     7  O    0.026108  -0.000957   0.001192  -0.000032  -0.000001   0.000000
     8  C   -0.048432  -0.085797   0.001379  -0.009014   0.000335  -0.000344
     9  C    0.364252   0.249200  -0.029565  -0.036137  -0.045602   0.011850
    10  C   -0.036674  -0.065448   0.006485   0.376646   0.204489  -0.046593
    11  C   -0.005736  -0.000198   0.000862  -0.037524  -0.025930  -0.009332
    12  H    0.003670  -0.000465  -0.000303  -0.006628   0.005553   0.001891
    13  H    0.000488   0.022085  -0.000944   0.013377   0.005206  -0.002474
    14  O   -0.000179   0.000031  -0.000002   0.004619  -0.006470   0.029232
    15  H   -0.000002   0.000005  -0.000009  -0.000628   0.000199  -0.001542
    16  H    0.010473   0.003947  -0.000325   0.000347   0.000222  -0.000193
    17  O    0.006054   0.002205   0.000082   0.000164  -0.012063   0.000365
    18  H    0.000090   0.004152  -0.000437   0.001217   0.043550  -0.002207
    19  H    0.596090  -0.024381  -0.014596  -0.000694   0.003691  -0.000460
    20  O   -0.024381   7.969368   0.311671   0.003638   0.001279  -0.000584
    21  H   -0.014596   0.311671   0.467549  -0.000538  -0.000386   0.000057
    22  H   -0.000694   0.003638  -0.000538   0.610972  -0.035367  -0.005619
    23  O    0.003691   0.001279  -0.000386  -0.035367   7.990883   0.320722
    24  H   -0.000460  -0.000584   0.000057  -0.005619   0.320722   0.443123
 Mulliken atomic charges:
              1
     1  C    0.018398
     2  O   -0.381244
     3  H    0.238569
     4  H    0.122177
     5  H    0.120150
     6  C    0.130369
     7  O   -0.302424
     8  C    0.100213
     9  C   -0.031661
    10  C    0.053000
    11  C    0.017035
    12  H    0.092422
    13  H    0.120402
    14  O   -0.427336
    15  H    0.252805
    16  H    0.127405
    17  O   -0.424524
    18  H    0.263520
    19  H    0.132044
    20  O   -0.408825
    21  H    0.254085
    22  H    0.121654
    23  O   -0.450244
    24  H    0.262010
 Sum of Mulliken atomic charges =   0.00000
 Mulliken charges with hydrogens summed into heavy atoms:
              1
     1  C    0.260725
     2  O   -0.142675
     6  C    0.130369
     7  O   -0.302424
     8  C    0.227618
     9  C    0.100383
    10  C    0.174654
    11  C    0.229858
    14  O   -0.174531
    17  O   -0.161005
    20  O   -0.154740
    23  O   -0.188234
 Sum of Mulliken charges with hydrogens summed into heavy atoms =   0.00000
 Electronic spatial extent (au):  <R**2>=           2795.9958
 Charge=              0.0000 electrons
 Dipole moment (field-independent basis, Debye):
    X=              3.3071    Y=              0.1241    Z=              1.1450  Tot=              3.5019
 Quadrupole moment (field-independent basis, Debye-Ang):
   XX=            -57.9653   YY=            -71.8245   ZZ=            -70.7624
   XY=            -11.8899   XZ=             -2.9898   YZ=             -4.2331
 Traceless Quadrupole moment (field-independent basis, Debye-Ang):
   XX=              8.8854   YY=             -4.9737   ZZ=             -3.9117
   XY=            -11.8899   XZ=             -2.9898   YZ=             -4.2331
 Octapole moment (field-independent basis, Debye-Ang**2):
  XXX=             41.0718  YYY=              0.9621  ZZZ=              3.1851  XYY=             21.9621
  XXY=             29.3156  XXZ=             52.8734  XZZ=             -5.5652  YZZ=              0.2663
  YYZ=              9.7799  XYZ=             -0.0913
 Hexadecapole moment (field-independent basis, Debye-Ang**3):
 XXXX=          -2096.8872 YYYY=           -410.0317 ZZZZ=           -219.0998 XXXY=           -202.2571
 XXXZ=             -9.3043 YYYX=             18.5722 YYYZ=            -11.6181 ZZZX=             -9.0360
 ZZZY=             -8.0177 XXYY=           -506.8474 XXZZ=           -469.4667 YYZZ=           -103.0351
 XXYZ=            -13.0032 YYXZ=             -9.1970 ZZXY=             -0.5021
 N-N= 7.847026151138D+02 E-N=-3.185800717164D+03  KE= 6.852688956236D+02
 Calling FoFJK, ICntrl=      2127 FMM=F ISym2X=0 I1Cent= 0 IOpClX= 0 NMat=1 NMatS=1 NMatT=0.
 ***** Axes restored to original set *****
 -------------------------------------------------------------------
 Center     Atomic                   Forces (Hartrees/Bohr)
 Number     Number              X              Y              Z
 -------------------------------------------------------------------
      1        6           0.001236513   -0.000059710   -0.000184963
      2        8           0.000017268    0.000529294   -0.000636029
      3        1          -0.000162764   -0.000213013    0.000229222
      4        1          -0.000433604   -0.000345093    0.000506522
      5        1          -0.000327642    0.000076990   -0.000218259
      6        6           0.000599106   -0.000146089   -0.000276734
      7        8           0.000716386   -0.000826702    0.000786099
      8        6          -0.005211777    0.006305850   -0.000667577
      9        6           0.005316140    0.001645936   -0.000151357
     10        6          -0.002916322    0.002775197    0.000495236
     11        6           0.000211250   -0.000146896   -0.000434662
     12        1          -0.000574776    0.000326992    0.000348413
     13        1           0.000530077    0.000034165   -0.000679818
     14        8           0.000832230   -0.000389704    0.000313067
     15        1           0.000204449    0.000385995   -0.000094327
     16        1           0.000121436   -0.000465069    0.000263806
     17        8           0.001928041   -0.003167008   -0.001658568
     18        1          -0.000506029   -0.000785395    0.000717118
     19        1           0.000376378   -0.001018314   -0.000637853
     20        8          -0.003748743   -0.002012412   -0.003155296
     21        1           0.000883292   -0.000627424    0.002138414
     22        1           0.000460510   -0.000537670    0.001439240
     23        8          -0.000901188   -0.001296196    0.002118546
     24        1           0.001349768   -0.000043722   -0.000560243
 -------------------------------------------------------------------
 Cartesian Forces:  Max     0.006305850 RMS     0.001616569

 GradGradGradGradGradGradGradGradGradGradGradGradGradGradGradGradGradGrad
 Berny optimization.
 Internal  Forces:  Max     0.004027256 RMS     0.000849853
 Search for a local minimum.
 Step number   1 out of a maximum of  126
 All quantities printed in internal units (Hartrees-Bohrs-Radians)
 Mixed Optimization -- En-DIIS/RFO-DIIS
 Second derivative matrix not updated -- first step.
 ITU=  0
     Eigenvalues ---    0.00319   0.00352   0.00460   0.00520   0.00589
     Eigenvalues ---    0.00592   0.01177   0.01232   0.01244   0.01430
     Eigenvalues ---    0.01546   0.04241   0.04526   0.04798   0.04886
     Eigenvalues ---    0.04896   0.05325   0.05736   0.06115   0.06318
     Eigenvalues ---    0.06595   0.07198   0.07584   0.07719   0.08189
     Eigenvalues ---    0.10659   0.11189   0.13353   0.13946   0.16000
     Eigenvalues ---    0.16000   0.16000   0.16000   0.16179   0.17135
     Eigenvalues ---    0.17234   0.18787   0.19806   0.20406   0.21987
     Eigenvalues ---    0.21995   0.24997   0.25000   0.28145   0.29076
     Eigenvalues ---    0.29297   0.30499   0.31014   0.33277   0.33587
     Eigenvalues ---    0.33655   0.33795   0.33809   0.34363   0.34476
     Eigenvalues ---    0.39732   0.40246   0.40442   0.42288   0.43836
     Eigenvalues ---    0.52345   0.54494   0.55270   0.55349   0.55679
     Eigenvalues ---    1.01076
 RFO step:  Lambda=-7.85120872D-04 EMin= 3.18963207D-03
 Linear search not attempted -- first point.
 Iteration  1 RMS(Cart)=  0.03953624 RMS(Int)=  0.00083503
 Iteration  2 RMS(Cart)=  0.00113654 RMS(Int)=  0.00015068
 Iteration  3 RMS(Cart)=  0.00000070 RMS(Int)=  0.00015068
 Variable       Old X    -DE/DX   Delta X   Delta X   Delta X     New X
                                 (Linear)    (Quad)   (Total)
    R1        2.66651  -0.00053   0.00000  -0.00121  -0.00121   2.66530
    R2        2.08033  -0.00064   0.00000  -0.00190  -0.00190   2.07843
    R3        2.07677   0.00033   0.00000   0.00096   0.00096   2.07773
    R4        2.85986  -0.00025   0.00000  -0.00082  -0.00082   2.85904
    R5        1.81593   0.00002   0.00000   0.00003   0.00003   1.81597
    R6        2.28211   0.00110   0.00000   0.00109   0.00109   2.28320
    R7        2.89844   0.00101   0.00000   0.00348   0.00348   2.90192
    R8        2.90528   0.00134   0.00000   0.00607   0.00576   2.91104
    R9        2.08568   0.00010   0.00000   0.00031   0.00031   2.08599
   R10        2.68353  -0.00403   0.00000  -0.00906  -0.00918   2.67435
   R11        2.88943  -0.00186   0.00000  -0.00499  -0.00526   2.88417
   R12        2.06722   0.00102   0.00000   0.00296   0.00296   2.07018
   R13        2.71919  -0.00398   0.00000  -0.01000  -0.01000   2.70919
   R14        2.86979   0.00122   0.00000   0.00399   0.00399   2.87379
   R15        2.07916  -0.00027   0.00000  -0.00081  -0.00081   2.07835
   R16        2.71127  -0.00166   0.00000  -0.00440  -0.00431   2.70696
   R17        2.07653  -0.00051   0.00000  -0.00151  -0.00151   2.07502
   R18        2.06533   0.00027   0.00000   0.00078   0.00078   2.06612
   R19        2.70957  -0.00066   0.00000  -0.00163  -0.00163   2.70794
   R20        1.81523   0.00026   0.00000   0.00048   0.00048   1.81571
   R21        1.83251  -0.00145   0.00000  -0.00342  -0.00314   1.82937
   R22        3.59440  -0.00062   0.00000  -0.02144  -0.02108   3.57332
   R23        1.81233   0.00195   0.00000   0.00349   0.00349   1.81582
   R24        1.82285   0.00023   0.00000   0.00041   0.00041   1.82326
    A1        1.98098  -0.00016   0.00000  -0.00016  -0.00017   1.98081
    A2        1.97614   0.00020   0.00000   0.00013   0.00012   1.97627
    A3        1.91544  -0.00017   0.00000  -0.00067  -0.00068   1.91476
    A4        1.85170  -0.00010   0.00000  -0.00080  -0.00080   1.85091
    A5        1.84483   0.00062   0.00000   0.00524   0.00524   1.85008
    A6        1.88773  -0.00037   0.00000  -0.00357  -0.00357   1.88416
    A7        1.87129   0.00043   0.00000   0.00269   0.00269   1.87398
    A8        2.15775  -0.00059   0.00000  -0.00236  -0.00236   2.15539
    A9        2.02964  -0.00052   0.00000  -0.00206  -0.00206   2.02758
   A10        2.09570   0.00111   0.00000   0.00444   0.00444   2.10014
   A11        1.91101  -0.00229   0.00000  -0.01628  -0.01604   1.89498
   A12        1.84743   0.00045   0.00000  -0.00002  -0.00009   1.84733
   A13        1.90665   0.00073   0.00000  -0.00201  -0.00172   1.90493
   A14        1.87355   0.00050   0.00000   0.00416   0.00418   1.87773
   A15        1.99060   0.00080   0.00000   0.00709   0.00646   1.99706
   A16        1.92901  -0.00023   0.00000   0.00646   0.00649   1.93550
   A17        1.97661  -0.00104   0.00000  -0.00021  -0.00091   1.97569
   A18        1.84474   0.00041   0.00000   0.00189   0.00211   1.84685
   A19        1.92430   0.00050   0.00000   0.00163   0.00183   1.92613
   A20        1.87638   0.00032   0.00000  -0.00091  -0.00067   1.87571
   A21        1.91422   0.00010   0.00000  -0.00089  -0.00072   1.91350
   A22        1.92582  -0.00028   0.00000  -0.00155  -0.00168   1.92413
   A23        1.98426  -0.00139   0.00000  -0.01054  -0.01038   1.97388
   A24        1.89229  -0.00025   0.00000  -0.00762  -0.00759   1.88470
   A25        1.90438   0.00027   0.00000   0.00389   0.00351   1.90789
   A26        1.88408   0.00069   0.00000   0.00437   0.00421   1.88830
   A27        1.89653   0.00063   0.00000   0.00257   0.00279   1.89932
   A28        1.90084   0.00009   0.00000   0.00808   0.00810   1.90894
   A29        1.93431  -0.00100   0.00000  -0.00630  -0.00629   1.92802
   A30        1.89128   0.00057   0.00000   0.00597   0.00597   1.89725
   A31        1.83345   0.00143   0.00000   0.00690   0.00690   1.84035
   A32        1.91243   0.00011   0.00000  -0.00091  -0.00091   1.91152
   A33        1.93924  -0.00013   0.00000  -0.00009  -0.00008   1.93916
   A34        1.95156  -0.00094   0.00000  -0.00528  -0.00531   1.94625
   A35        1.89783  -0.00005   0.00000  -0.00031  -0.00031   1.89752
   A36        1.86427   0.00014   0.00000   0.00425   0.00386   1.86813
   A37        1.87609   0.00032   0.00000   0.00198   0.00198   1.87807
   A38        1.86196  -0.00110   0.00000  -0.00686  -0.00686   1.85510
    D1        0.98109  -0.00007   0.00000   0.00672   0.00672   0.98781
    D2       -1.13136   0.00003   0.00000   0.00781   0.00781  -1.12355
    D3        3.04076   0.00049   0.00000   0.01278   0.01278   3.05354
    D4       -0.04407  -0.00008   0.00000  -0.00527  -0.00527  -0.04934
    D5        3.11294  -0.00010   0.00000  -0.00682  -0.00682   3.10613
    D6        2.09838   0.00000   0.00000  -0.00266  -0.00266   2.09572
    D7       -1.02780  -0.00001   0.00000  -0.00421  -0.00420  -1.03200
    D8       -2.20765   0.00002   0.00000  -0.00267  -0.00267  -2.21033
    D9        0.94936   0.00000   0.00000  -0.00422  -0.00422   0.94514
   D10        2.27062   0.00019   0.00000   0.02926   0.02910   2.29972
   D11       -1.99807  -0.00010   0.00000   0.02623   0.02624  -1.97183
   D12        0.07924   0.00025   0.00000   0.03280   0.03295   0.11219
   D13       -0.85613   0.00019   0.00000   0.02783   0.02767  -0.82846
   D14        1.15836  -0.00010   0.00000   0.02481   0.02481   1.18317
   D15       -3.04752   0.00025   0.00000   0.03138   0.03152  -3.01600
   D16        2.96223   0.00032   0.00000   0.04576   0.04586   3.00809
   D17        0.91247   0.00023   0.00000   0.04579   0.04584   0.95830
   D18       -1.16878   0.00007   0.00000   0.04568   0.04564  -1.12313
   D19        0.96449   0.00069   0.00000   0.05178   0.05183   1.01632
   D20       -1.08528   0.00060   0.00000   0.05181   0.05181  -1.03347
   D21        3.11666   0.00044   0.00000   0.05170   0.05161  -3.11491
   D22       -1.17870   0.00009   0.00000   0.03580   0.03604  -1.14267
   D23        3.05471   0.00001   0.00000   0.03583   0.03601   3.09073
   D24        0.97347  -0.00016   0.00000   0.03572   0.03582   1.00929
   D25        2.81050  -0.00052   0.00000   0.01998   0.01995   2.83045
   D26        0.66587   0.00135   0.00000   0.03772   0.03759   0.70346
   D27       -1.44678   0.00032   0.00000   0.02247   0.02254  -1.42424
   D28        3.06224   0.00000   0.00000   0.00279   0.00270   3.06494
   D29       -1.12557  -0.00020   0.00000  -0.00374  -0.00374  -1.12931
   D30        0.94238  -0.00007   0.00000   0.00378   0.00360   0.94598
   D31       -1.18977   0.00011   0.00000   0.00441   0.00435  -1.18542
   D32        0.90561  -0.00008   0.00000  -0.00212  -0.00209   0.90352
   D33        2.97356   0.00004   0.00000   0.00539   0.00524   2.97881
   D34        0.90452   0.00002   0.00000   0.00149   0.00152   0.90604
   D35        2.99990  -0.00017   0.00000  -0.00504  -0.00492   2.99497
   D36       -1.21533  -0.00005   0.00000   0.00248   0.00241  -1.21292
   D37        1.74153  -0.00029   0.00000  -0.06305  -0.06273   1.67880
   D38       -2.35356  -0.00120   0.00000  -0.06280  -0.06312  -2.41668
   D39       -0.28970  -0.00092   0.00000  -0.06540  -0.06540  -0.35510
   D40        1.04166  -0.00024   0.00000   0.00320   0.00331   1.04497
   D41       -1.05730  -0.00012   0.00000   0.00436   0.00448  -1.05282
   D42        3.13758  -0.00008   0.00000   0.00385   0.00395   3.14152
   D43       -1.05834   0.00047   0.00000   0.01643   0.01645  -1.04190
   D44        3.12588   0.00059   0.00000   0.01759   0.01762  -3.13969
   D45        1.03757   0.00063   0.00000   0.01708   0.01709   1.05465
   D46       -3.11730  -0.00037   0.00000   0.00300   0.00288  -3.11442
   D47        1.06693  -0.00025   0.00000   0.00416   0.00405   1.07098
   D48       -1.02138  -0.00020   0.00000   0.00365   0.00352  -1.01787
   D49        3.05867  -0.00112   0.00000  -0.06051  -0.06044   2.99823
   D50        0.88638   0.00002   0.00000  -0.05164  -0.05164   0.83474
   D51       -1.16191  -0.00120   0.00000  -0.06280  -0.06287  -1.22478
   D52        2.89379   0.00028   0.00000  -0.01140  -0.01141   2.88238
   D53       -1.29676  -0.00013   0.00000  -0.01485  -0.01485  -1.31160
   D54        0.84611  -0.00076   0.00000  -0.01988  -0.01987   0.82625
         Item               Value     Threshold  Converged?
 Maximum Force            0.004027     0.000450     NO 
 RMS     Force            0.000850     0.000300     NO 
 Maximum Displacement     0.151132     0.001800     NO 
 RMS     Displacement     0.039276     0.001200     NO 
 Predicted change in Energy=-4.163981D-04
 GradGradGradGradGradGradGradGradGradGradGradGradGradGradGradGradGradGrad

                          Input orientation:                          
 ---------------------------------------------------------------------
 Center     Atomic      Atomic             Coordinates (Angstroms)
 Number     Number       Type             X           Y           Z
 ---------------------------------------------------------------------
      1          6           0       -0.765369    0.473090    0.541329
      2          8           0       -0.288743   -0.121484    1.728168
      3          1           0       -0.322585    0.547061    2.417631
      4          1           0       -0.209331    1.376000    0.249341
      5          1           0       -1.821715    0.772349    0.600077
      6          6           0       -0.618919   -0.497456   -0.610006
      7          8           0       -0.112817   -1.589185   -0.501508
      8          6           0       -1.140192   -0.016283   -1.971957
      9          6           0       -0.059767   -0.289823   -3.035375
     10          6           0       -0.537293   -0.022719   -4.460163
     11          6           0        0.560788   -0.190916   -5.498712
     12          1           0        0.957171   -1.214678   -5.476033
     13          1           0        1.364148    0.516906   -5.277355
     14          8           0       -0.058802    0.094719   -6.758853
     15          1           0        0.628342    0.231927   -7.416273
     16          1           0       -2.008163   -0.656910   -2.205894
     17          8           0       -1.528004    1.340724   -1.867397
     18          1           0       -1.576482    1.692051   -2.768150
     19          1           0        0.169389   -1.358440   -2.960210
     20          8           0        1.113312    0.489209   -2.766437
     21          1           0        1.726975   -0.067860   -2.280221
     22          1           0       -1.339432   -0.739373   -4.689446
     23          8           0       -1.053104    1.310966   -4.544782
     24          1           0       -1.218354    1.478355   -5.480499
 ---------------------------------------------------------------------
                    Distance matrix (angstroms):
                    1          2          3          4          5
     1  C    0.000000
     2  O    1.410417   0.000000
     3  H    1.929259   0.960968   0.000000
     4  H    1.099856   2.106109   2.324101   0.000000
     5  H    1.099489   2.102744   2.366781   1.757041   0.000000
     6  C    1.512937   2.391115   3.216430   2.101447   2.126834
     7  O    2.401315   2.675173   3.623386   3.060297   3.116195
     8  C    2.587776   3.798283   4.500480   2.781927   2.775206
     9  C    3.724610   4.772012   5.523108   3.686013   4.177221
    10  C    5.031179   6.194107   6.904694   4.923759   5.280900
    11  C    6.219461   7.276972   7.999590   6.007364   6.618114
    12  H    6.482619   7.392421   8.188494   6.391577   6.970624
    13  H    6.196276   7.226128   7.877740   5.810185   6.690230
    14  O    7.344049   8.492888   9.191412   7.125948   7.597427
    15  H    8.082328   9.197105   9.884799   7.795655   8.399804
    16  H    3.220042   4.326654   5.066331   3.660151   3.154523
    17  O    2.671398   4.074544   4.521549   2.494138   2.549067
    18  H    3.618898   5.016379   5.456701   3.327799   3.500135
    19  H    4.060671   4.870403   5.726617   4.233416   4.602217
    20  O    3.804079   4.747649   5.379564   3.410381   4.475262
    21  H    3.803360   4.487001   5.162232   3.497528   4.647071
    22  H    5.400058   6.532343   7.293795   5.490315   5.522405
    23  O    5.162688   6.479665   7.042187   4.868244   5.229765
    24  H    6.121941   7.442348   8.003135   5.818907   6.151089
                    6          7          8          9         10
     6  C    0.000000
     7  O    1.208215   0.000000
     8  C    1.535631   2.385737   0.000000
     9  C    2.497634   2.848094   1.540455   0.000000
    10  C    3.880173   4.278428   2.560215   1.526236   0.000000
    11  C    5.038365   5.232681   3.919418   2.542224   1.520742
    12  H    5.164948   5.102062   4.256012   2.801131   2.164759
    13  H    5.171617   5.424551   4.181108   2.775755   2.138802
    14  O    6.202638   6.480187   4.908778   3.743283   2.350898
    15  H    6.957940   7.188863   5.729738   4.465198   3.187811
    16  H    2.121858   2.714113   1.103859   2.149195   2.765391
    17  O    2.405489   3.528850   1.415203   2.485674   3.092397
    18  H    3.220009   4.248117   1.934600   2.509912   2.623596
    19  H    2.624153   2.485578   2.119677   1.095493   2.129180
    20  O    2.936720   3.309534   2.442335   1.433643   2.419768
    21  H    2.911596   2.977093   2.884152   1.952426   3.143420
    22  H    4.149638   4.445852   2.819097   2.139063   1.099814
    23  O    4.352168   5.063900   2.896309   2.414033   1.432459
    24  H    5.290071   5.951670   3.814436   3.232246   1.938596
                   11         12         13         14         15
    11  C    0.000000
    12  H    1.098054   0.000000
    13  H    1.093342   1.789828   0.000000
    14  O    1.432982   2.095794   2.097109   0.000000
    15  H    1.964790   2.442402   2.279824   0.960830   0.000000
    16  H    4.202298   4.449508   4.710010   5.009430   5.906711
    17  O    4.460429   5.072320   4.546540   5.257131   6.055517
    18  H    3.945815   4.711805   4.040343   4.558566   5.347734
    19  H    2.821401   2.640197   3.211469   4.073504   4.753568
    20  O    2.869352   3.204610   2.523568   4.179577   4.682133
    21  H    3.425466   3.481523   3.075126   4.824269   5.260788
    22  H    2.136950   2.473666   3.038621   2.572580   3.500163
    23  O    2.402142   3.359660   2.647698   2.714775   3.498150
    24  H    2.439703   3.461988   2.763145   2.212058   2.951456
                   16         17         18         19         20
    16  H    0.000000
    17  O    2.082228   0.000000
    18  H    2.453589   0.968058   0.000000
    19  H    2.408914   3.370589   3.520007   0.000000
    20  O    3.372151   2.917174   2.946493   2.083830   0.000000
    21  H    3.782031   3.570633   3.774677   2.134023   0.960892
    22  H    2.573331   3.510886   3.107956   2.376982   3.350124
    23  O    3.202354   2.719339   1.890917   3.336329   2.920814
    24  H    3.988257   3.628957   2.744222   4.040433   3.712306
                   21         22         23         24
    21  H    0.000000
    22  H    3.957037   0.000000
    23  O    3.841645   2.075283   0.000000
    24  H    4.616007   2.357698   0.964828   0.000000
 Stoichiometry    C6H12O6
 Framework group  C1[X(C6H12O6)]
 Deg. of freedom    66
 Full point group                 C1      NOp   1
 Largest Abelian subgroup         C1      NOp   1
 Largest concise Abelian subgroup C1      NOp   1
                         Standard orientation:                         
 ---------------------------------------------------------------------
 Center     Atomic      Atomic             Coordinates (Angstroms)
 Number     Number       Type             X           Y           Z
 ---------------------------------------------------------------------
      1          6           0       -3.070878    0.509133    0.230228
      2          8           0       -4.251145   -0.261037    0.285780
      3          1           0       -4.901745    0.246138    0.778681
      4          1           0       -2.687082    0.795294    1.220428
      5          1           0       -3.190718    1.446470   -0.331833
      6          6           0       -1.969393   -0.292052   -0.428415
      7          8           0       -2.102396   -1.437468   -0.789133
      8          6           0       -0.624609    0.426858   -0.609758
      9          6           0        0.498730   -0.499405   -0.106620
     10          6           0        1.897051    0.033371   -0.407026
     11          6           0        3.002983   -0.827895    0.182713
     12          1           0        2.951163   -1.848129   -0.219978
     13          1           0        2.882897   -0.857348    1.269041
     14          8           0        4.227888   -0.186318   -0.193349
     15          1           0        4.941343   -0.547478    0.339323
     16          1           0       -0.492947    0.549620   -1.698840
     17          8           0       -0.679720    1.684450    0.036946
     18          1           0        0.233597    1.982660    0.155514
     19          1           0        0.379655   -1.439228   -0.656765
     20          8           0        0.362835   -0.728532    1.302055
     21          1           0       -0.107566   -1.558421    1.417473
     22          1           0        2.024613    0.055589   -1.499192
     23          8           0        2.019432    1.362545    0.112838
     24          1           0        2.948333    1.605648    0.018305
 ---------------------------------------------------------------------
 Rotational constants (GHZ):      2.3505949      0.4222953      0.3916257
 Standard basis: 6-311G(d,p) (5D, 7F)
 There are   288 symmetry adapted basis functions of A   symmetry.
 Integral buffers will be    131072 words long.
 Raffenetti 2 integral format.
 Two-electron integral symmetry is turned on.
   288 basis functions,   480 primitive gaussians,   300 cartesian basis functions
    48 alpha electrons       48 beta electrons
       nuclear repulsion energy       785.8072446278 Hartrees.
 NAtoms=   24 NActive=   24 NUniq=   24 SFac= 1.00D+00 NAtFMM=   50 NAOKFM=F Big=F
 One-electron integrals computed using PRISM.
 NBasis=   288 RedAO= T  NBF=   288
 NBsUse=   288 1.00D-06 NBFU=   288
 Initial guess read from the read-write file.
 B after Tr=     0.000000    0.000000    0.000000
         Rot=    1.000000    0.000000    0.000000    0.000000 Ang=   0.00 deg.
 Initial guess orbital symmetries:
       Occupied  (A) (A) (A) (A) (A) (A) (A) (A) (A) (A) (A) (A)
                 (A) (A) (A) (A) (A) (A) (A) (A) (A) (A) (A) (A)
                 (A) (A) (A) (A) (A) (A) (A) (A) (A) (A) (A) (A)
                 (A) (A) (A) (A) (A) (A) (A) (A) (A) (A) (A) (A)
       Virtual   (A) (A) (A) (A) (A) (A) (A) (A) (A) (A) (A) (A)
                 (A) (A) (A) (A) (A) (A) (A) (A) (A) (A) (A) (A)
                 (A) (A) (A) (A) (A) (A) (A) (A) (A) (A) (A) (A)
                 (A) (A) (A) (A) (A) (A) (A) (A) (A) (A) (A) (A)
                 (A) (A) (A) (A) (A) (A) (A) (A) (A) (A) (A) (A)
                 (A) (A) (A) (A) (A) (A) (A) (A) (A) (A) (A) (A)
                 (A) (A) (A) (A) (A) (A) (A) (A) (A) (A) (A) (A)
                 (A) (A) (A) (A) (A) (A) (A) (A) (A) (A) (A) (A)
                 (A) (A) (A) (A) (A) (A) (A) (A) (A) (A) (A) (A)
                 (A) (A) (A) (A) (A) (A) (A) (A) (A) (A) (A) (A)
                 (A) (A) (A) (A) (A) (A) (A) (A) (A) (A) (A) (A)
                 (A) (A) (A) (A) (A) (A) (A) (A) (A) (A) (A) (A)
                 (A) (A) (A) (A) (A) (A) (A) (A) (A) (A) (A) (A)
                 (A) (A) (A) (A) (A) (A) (A) (A) (A) (A) (A) (A)
                 (A) (A) (A) (A) (A) (A) (A) (A) (A) (A) (A) (A)
                 (A) (A) (A) (A) (A) (A) (A) (A) (A) (A) (A) (A)
                 (A) (A) (A) (A) (A) (A) (A) (A) (A) (A) (A) (A)
                 (A) (A) (A) (A) (A) (A) (A) (A) (A) (A) (A) (A)
                 (A) (A) (A) (A) (A) (A) (A) (A) (A) (A) (A) (A)
                 (A) (A) (A) (A) (A) (A) (A) (A) (A) (A) (A) (A)
 Harris functional with IExCor=  402 diagonalized for initial guess.
 ExpMin= 1.03D-01 ExpMax= 8.59D+03 ExpMxC= 1.30D+03 IAcc=1 IRadAn=         1 AccDes= 0.00D+00
 HarFok:  IExCor=  402 AccDes= 0.00D+00 IRadAn=         1 IDoV= 1
 ScaDFX=  1.000000  1.000000  1.000000  1.000000
 FoFCou: FMM=F IPFlag=           0 FMFlag=      100000 FMFlg1=           0
         NFxFlg=           0 DoJE=T BraDBF=F KetDBF=T FulRan=T
         Omega=  0.000000  0.000000  1.000000  0.000000  0.000000 ICntrl=     500 IOpCl=  0
         NMat0=    1 NMatS0=    1 NMatT0=    0 NMatD0=    1 NMtDS0=    0 NMtDT0=    0
         I1Cent=           4 NGrid=           0.
 Petite list used in FoFCou.
 Requested convergence on RMS density matrix=1.00D-08 within 128 cycles.
 Requested convergence on MAX density matrix=1.00D-06.
 Requested convergence on             energy=1.00D-06.
 No special actions if energy rises.
 Keep R1 ints in memory in canonical form, NReq=1033417329.
 Integral accuracy reduced to 1.0D-05 until final iterations.
 Initial convergence to 1.0D-05 achieved.  Increase integral accuracy.
 SCF Done:  E(RB3LYP) =  -687.360818489     A.U. after   11 cycles
             Convg  =    0.5302D-08             -V/T =  2.0030
 Calling FoFJK, ICntrl=      2127 FMM=F ISym2X=0 I1Cent= 0 IOpClX= 0 NMat=1 NMatS=1 NMatT=0.
 ***** Axes restored to original set *****
 -------------------------------------------------------------------
 Center     Atomic                   Forces (Hartrees/Bohr)
 Number     Number              X              Y              Z
 -------------------------------------------------------------------
      1        6           0.000386061   -0.000071014    0.000211038
      2        8           0.000159430    0.000205164   -0.000175976
      3        1          -0.000162138   -0.000088613    0.000033559
      4        1          -0.000056907   -0.000120809    0.000128039
      5        1          -0.000198443    0.000065842   -0.000068610
      6        6          -0.000025549   -0.000329980    0.000172970
      7        8           0.000309380   -0.000072321    0.000314322
      8        6          -0.001901919    0.002379705    0.000317114
      9        6           0.003077618    0.000585976    0.000804442
     10        6          -0.000231707    0.001750581    0.000009692
     11        6           0.000240771   -0.000067403   -0.000359199
     12        1          -0.000226776   -0.000067987    0.000207028
     13        1          -0.000011110   -0.000259075    0.000123705
     14        8          -0.000086479   -0.000046077   -0.000015080
     15        1          -0.000005345    0.000319602    0.000132133
     16        1          -0.000067217   -0.000248372   -0.000159321
     17        8           0.000599696   -0.002017741   -0.000075825
     18        1           0.000431742    0.000123314   -0.000717735
     19        1          -0.000230895   -0.000117325   -0.000514697
     20        8          -0.000580875   -0.001171267   -0.002114189
     21        1          -0.000501434    0.000196268    0.001405605
     22        1          -0.000151475   -0.000097374    0.000321001
     23        8          -0.001286904   -0.001167843    0.000617593
     24        1           0.000520475    0.000316751   -0.000597609
 -------------------------------------------------------------------
 Cartesian Forces:  Max     0.003077618 RMS     0.000768341

 GradGradGradGradGradGradGradGradGradGradGradGradGradGradGradGradGradGrad
 Berny optimization.
 Using GEDIIS/GDIIS optimizer.
 Internal  Forces:  Max     0.001962241 RMS     0.000372922
 Search for a local minimum.
 Step number   2 out of a maximum of  126
 All quantities printed in internal units (Hartrees-Bohrs-Radians)
 Mixed Optimization -- En-DIIS/RFO-DIIS
 Swaping is turned off.
 Update second derivatives using D2CorX and points    1    2
 DE= -5.42D-04 DEPred=-4.16D-04 R= 1.30D+00
 SS=  1.41D+00  RLast= 2.28D-01 DXNew= 5.0454D-01 6.8356D-01
 Trust test= 1.30D+00 RLast= 2.28D-01 DXMaxT set to 5.05D-01
 ITU=  1  0
     Eigenvalues ---    0.00287   0.00392   0.00435   0.00460   0.00583
     Eigenvalues ---    0.00589   0.00728   0.01238   0.01251   0.01542
     Eigenvalues ---    0.01579   0.04272   0.04568   0.04804   0.04890
     Eigenvalues ---    0.05223   0.05399   0.05733   0.06093   0.06324
     Eigenvalues ---    0.06450   0.07185   0.07651   0.07714   0.08138
     Eigenvalues ---    0.10799   0.11189   0.13403   0.13915   0.15975
     Eigenvalues ---    0.16000   0.16000   0.16096   0.16153   0.17092
     Eigenvalues ---    0.17198   0.18607   0.19448   0.20933   0.21992
     Eigenvalues ---    0.22526   0.24870   0.25021   0.28043   0.28919
     Eigenvalues ---    0.29876   0.30832   0.31087   0.33274   0.33577
     Eigenvalues ---    0.33679   0.33780   0.33837   0.34414   0.34572
     Eigenvalues ---    0.38387   0.40203   0.40474   0.41525   0.43833
     Eigenvalues ---    0.52727   0.54516   0.55270   0.55358   0.55827
     Eigenvalues ---    1.01075
 En-DIIS/RFO-DIIS IScMMF=        0 using points:     2    1
 RFO step:  Lambda=-8.04481336D-05.
 DidBck=F Rises=F RFO-DIIS coefs:    1.59877   -0.59877
 Iteration  1 RMS(Cart)=  0.04357314 RMS(Int)=  0.00253024
 Iteration  2 RMS(Cart)=  0.00282822 RMS(Int)=  0.00016061
 Iteration  3 RMS(Cart)=  0.00001848 RMS(Int)=  0.00016007
 Iteration  4 RMS(Cart)=  0.00000000 RMS(Int)=  0.00016007
 Variable       Old X    -DE/DX   Delta X   Delta X   Delta X     New X
                                  (DIIS)     (GDIIS)  (Total)
    R1        2.66530  -0.00017  -0.00072  -0.00100  -0.00173   2.66358
    R2        2.07843  -0.00016  -0.00114  -0.00135  -0.00249   2.07594
    R3        2.07773   0.00020   0.00058   0.00127   0.00184   2.07957
    R4        2.85904   0.00009  -0.00049   0.00019  -0.00030   2.85874
    R5        1.81597  -0.00003   0.00002  -0.00007  -0.00005   1.81591
    R6        2.28320   0.00022   0.00065   0.00069   0.00134   2.28454
    R7        2.90192   0.00081   0.00208   0.00553   0.00762   2.90954
    R8        2.91104   0.00083   0.00345   0.00590   0.00903   2.92006
    R9        2.08599   0.00023   0.00018   0.00120   0.00138   2.08738
   R10        2.67435  -0.00196  -0.00550  -0.01036  -0.01599   2.65836
   R11        2.88417   0.00053  -0.00315   0.00089  -0.00255   2.88162
   R12        2.07018   0.00003   0.00177   0.00106   0.00283   2.07301
   R13        2.70919  -0.00155  -0.00599  -0.00932  -0.01531   2.69389
   R14        2.87379  -0.00011   0.00239   0.00064   0.00303   2.87682
   R15        2.07835   0.00011  -0.00048   0.00026  -0.00022   2.07813
   R16        2.70696  -0.00065  -0.00258  -0.00382  -0.00631   2.70064
   R17        2.07502  -0.00001  -0.00090  -0.00053  -0.00143   2.07359
   R18        2.06612  -0.00015   0.00047  -0.00047   0.00000   2.06612
   R19        2.70794  -0.00001  -0.00098  -0.00054  -0.00151   2.70643
   R20        1.81571  -0.00005   0.00028   0.00000   0.00029   1.81599
   R21        1.82937   0.00024  -0.00188   0.00004  -0.00155   1.82782
   R22        3.57332  -0.00058  -0.01262  -0.02247  -0.03472   3.53860
   R23        1.81582   0.00028   0.00209   0.00187   0.00396   1.81979
   R24        1.82326   0.00055   0.00025   0.00173   0.00198   1.82524
    A1        1.98081  -0.00009  -0.00010  -0.00075  -0.00086   1.97995
    A2        1.97627   0.00007   0.00007   0.00051   0.00057   1.97684
    A3        1.91476   0.00004  -0.00040   0.00009  -0.00033   1.91443
    A4        1.85091  -0.00001  -0.00048  -0.00041  -0.00087   1.85003
    A5        1.85008   0.00015   0.00314   0.00360   0.00674   1.85682
    A6        1.88416  -0.00015  -0.00214  -0.00298  -0.00512   1.87905
    A7        1.87398   0.00003   0.00161   0.00117   0.00278   1.87675
    A8        2.15539  -0.00037  -0.00141  -0.00311  -0.00453   2.15086
    A9        2.02758  -0.00005  -0.00124  -0.00100  -0.00224   2.02533
   A10        2.10014   0.00042   0.00266   0.00399   0.00663   2.10677
   A11        1.89498   0.00008  -0.00960  -0.00498  -0.01436   1.88061
   A12        1.84733   0.00005  -0.00006   0.00201   0.00185   1.84918
   A13        1.90493   0.00002  -0.00103   0.00000  -0.00077   1.90415
   A14        1.87773  -0.00016   0.00250  -0.00179   0.00074   1.87847
   A15        1.99706  -0.00021   0.00387  -0.00212   0.00108   1.99813
   A16        1.93550   0.00024   0.00389   0.00698   0.01090   1.94640
   A17        1.97569  -0.00070  -0.00055  -0.00825  -0.00955   1.96614
   A18        1.84685   0.00014   0.00126   0.00078   0.00223   1.84908
   A19        1.92613   0.00032   0.00110   0.00451   0.00583   1.93196
   A20        1.87571   0.00000  -0.00040  -0.00299  -0.00314   1.87258
   A21        1.91350   0.00029  -0.00043   0.00295   0.00272   1.91622
   A22        1.92413  -0.00006  -0.00101   0.00291   0.00175   1.92588
   A23        1.97388  -0.00052  -0.00622  -0.00451  -0.01060   1.96328
   A24        1.88470  -0.00008  -0.00454  -0.00548  -0.01000   1.87470
   A25        1.90789   0.00073   0.00210   0.00985   0.01158   1.91948
   A26        1.88830   0.00027   0.00252   0.00134   0.00364   1.89193
   A27        1.89932  -0.00001   0.00167   0.00391   0.00582   1.90513
   A28        1.90894  -0.00040   0.00485  -0.00547  -0.00057   1.90838
   A29        1.92802  -0.00017  -0.00377  -0.00410  -0.00786   1.92015
   A30        1.89725  -0.00004   0.00358  -0.00011   0.00347   1.90072
   A31        1.84035  -0.00020   0.00413   0.00074   0.00487   1.84521
   A32        1.91152   0.00003  -0.00054  -0.00012  -0.00066   1.91086
   A33        1.93916   0.00031  -0.00005   0.00509   0.00506   1.94422
   A34        1.94625   0.00005  -0.00318  -0.00167  -0.00488   1.94138
   A35        1.89752  -0.00007  -0.00019  -0.00075  -0.00094   1.89658
   A36        1.86813   0.00014   0.00231   0.00177   0.00367   1.87180
   A37        1.87807  -0.00024   0.00118  -0.00175  -0.00056   1.87750
   A38        1.85510  -0.00002  -0.00411  -0.00233  -0.00644   1.84866
    D1        0.98781   0.00005   0.00402   0.01178   0.01581   1.00362
    D2       -1.12355   0.00007   0.00468   0.01251   0.01718  -1.10637
    D3        3.05354   0.00020   0.00765   0.01592   0.02357   3.07711
    D4       -0.04934  -0.00002  -0.00316  -0.00814  -0.01129  -0.06063
    D5        3.10613   0.00001  -0.00408   0.00158  -0.00251   3.10362
    D6        2.09572  -0.00002  -0.00159  -0.00680  -0.00837   2.08735
    D7       -1.03200   0.00001  -0.00252   0.00293   0.00041  -1.03159
    D8       -2.21033  -0.00002  -0.00160  -0.00689  -0.00849  -2.21882
    D9        0.94514   0.00000  -0.00253   0.00284   0.00029   0.94543
   D10        2.29972   0.00005   0.01743   0.04206   0.05932   2.35904
[...]
 ! A16   A(16,8,17)            110.8697         calculate D2E/DX2 analytically  !
 ! A17   A(8,9,10)             112.4203         calculate D2E/DX2 analytically  !
 ! A18   A(8,9,19)             106.2672         calculate D2E/DX2 analytically  !
 ! A19   A(8,9,20)             112.1223         calculate D2E/DX2 analytically  !
 ! A20   A(10,9,19)            106.4754         calculate D2E/DX2 analytically  !
 ! A21   A(10,9,20)            109.1514         calculate D2E/DX2 analytically  !
 ! A22   A(19,9,20)            110.2138         calculate D2E/DX2 analytically  !
 ! A23   A(9,10,11)            112.5426         calculate D2E/DX2 analytically  !
 ! A24   A(9,10,22)            107.7078         calculate D2E/DX2 analytically  !
 ! A25   A(9,10,23)            110.1989         calculate D2E/DX2 analytically  !
 ! A26   A(11,10,22)           108.4791         calculate D2E/DX2 analytically  !
 ! A27   A(11,10,23)           108.9037         calculate D2E/DX2 analytically  !
 ! A28   A(22,10,23)           108.931          calculate D2E/DX2 analytically  !
 ! A29   A(10,11,12)           110.286          calculate D2E/DX2 analytically  !
 ! A30   A(10,11,13)           108.8628         calculate D2E/DX2 analytically  !
 ! A31   A(10,11,14)           105.5778         calculate D2E/DX2 analytically  !
 ! A32   A(12,11,13)           109.3978         calculate D2E/DX2 analytically  !
 ! A33   A(12,11,14)           111.1455         calculate D2E/DX2 analytically  !
 ! A34   A(13,11,14)           111.4945         calculate D2E/DX2 analytically  !
 ! A35   A(11,14,15)           108.5747         calculate D2E/DX2 analytically  !
 ! A36   A(8,17,18)            106.6432         calculate D2E/DX2 analytically  !
 ! A37   A(9,20,21)            106.1007         calculate D2E/DX2 analytically  !
 ! A38   A(10,23,24)           106.0733         calculate D2E/DX2 analytically  !
 ! D1    D(4,1,2,3)             51.2895         calculate D2E/DX2 analytically  !
 ! D2    D(5,1,2,3)            -69.8829         calculate D2E/DX2 analytically  !
 ! D3    D(6,1,2,3)            169.7595         calculate D2E/DX2 analytically  !
 ! D4    D(2,1,6,7)             -6.6775         calculate D2E/DX2 analytically  !
 ! D5    D(2,1,6,8)            174.016          calculate D2E/DX2 analytically  !
 ! D6    D(4,1,6,7)            116.2213         calculate D2E/DX2 analytically  !
 ! D7    D(4,1,6,8)            -63.0851         calculate D2E/DX2 analytically  !
 ! D8    D(5,1,6,7)           -129.9553         calculate D2E/DX2 analytically  !
 ! D9    D(5,1,6,8)             50.7383         calculate D2E/DX2 analytically  !
 ! D10   D(1,6,8,9)            167.7581         calculate D2E/DX2 analytically  !
 ! D11   D(1,6,8,16)           -76.0335         calculate D2E/DX2 analytically  !
 ! D12   D(1,6,8,17)            42.3426         calculate D2E/DX2 analytically  !
 ! D13   D(7,6,8,9)            -11.5563         calculate D2E/DX2 analytically  !
 ! D14   D(7,6,8,16)           104.6521         calculate D2E/DX2 analytically  !
 ! D15   D(7,6,8,17)          -136.9718         calculate D2E/DX2 analytically  !
 ! D16   D(6,8,9,10)           175.3644         calculate D2E/DX2 analytically  !
 ! D17   D(6,8,9,19)            59.2619         calculate D2E/DX2 analytically  !
 ! D18   D(6,8,9,20)           -61.2127         calculate D2E/DX2 analytically  !
 ! D19   D(16,8,9,10)           59.5331         calculate D2E/DX2 analytically  !
 ! D20   D(16,8,9,19)          -56.5695         calculate D2E/DX2 analytically  !
 ! D21   D(16,8,9,20)         -177.044          calculate D2E/DX2 analytically  !
 ! D22   D(17,8,9,10)          -64.1819         calculate D2E/DX2 analytically  !
 ! D23   D(17,8,9,19)          179.7156         calculate D2E/DX2 analytically  !
 ! D24   D(17,8,9,20)           59.241          calculate D2E/DX2 analytically  !
 ! D25   D(6,8,17,18)          162.6645         calculate D2E/DX2 analytically  !
 ! D26   D(9,8,17,18)           39.9417         calculate D2E/DX2 analytically  !
 ! D27   D(16,8,17,18)         -81.8068         calculate D2E/DX2 analytically  !
 ! D28   D(8,9,10,11)          172.6763         calculate D2E/DX2 analytically  !
 ! D29   D(8,9,10,22)          -67.8001         calculate D2E/DX2 analytically  !
 ! D30   D(8,9,10,23)           50.9083         calculate D2E/DX2 analytically  !
 ! D31   D(19,9,10,11)         -71.3463         calculate D2E/DX2 analytically  !
 ! D32   D(19,9,10,22)          48.1773         calculate D2E/DX2 analytically  !
 ! D33   D(19,9,10,23)         166.8857         calculate D2E/DX2 analytically  !
 ! D34   D(20,9,10,11)          47.6095         calculate D2E/DX2 analytically  !
 ! D35   D(20,9,10,22)         167.1331         calculate D2E/DX2 analytically  !
 ! D36   D(20,9,10,23)         -74.1584         calculate D2E/DX2 analytically  !
 ! D37   D(8,9,20,21)           66.0536         calculate D2E/DX2 analytically  !
 ! D38   D(10,9,20,21)        -168.7064         calculate D2E/DX2 analytically  !
 ! D39   D(19,9,20,21)         -52.1041         calculate D2E/DX2 analytically  !
 ! D40   D(9,10,11,12)          62.6377         calculate D2E/DX2 analytically  !
 ! D41   D(9,10,11,13)         -57.3933         calculate D2E/DX2 analytically  !
 ! D42   D(9,10,11,14)        -177.2095         calculate D2E/DX2 analytically  !
 ! D43   D(22,10,11,12)        -56.4368         calculate D2E/DX2 analytically  !
 ! D44   D(22,10,11,13)       -176.4679         calculate D2E/DX2 analytically  !
 ! D45   D(22,10,11,14)         63.716          calculate D2E/DX2 analytically  !
 ! D46   D(23,10,11,12)       -174.8621         calculate D2E/DX2 analytically  !
 ! D47   D(23,10,11,13)         65.1069         calculate D2E/DX2 analytically  !
 ! D48   D(23,10,11,14)        -54.7093         calculate D2E/DX2 analytically  !
 ! D49   D(9,10,23,24)         165.1622         calculate D2E/DX2 analytically  !
 ! D50   D(11,10,23,24)         41.2604         calculate D2E/DX2 analytically  !
 ! D51   D(22,10,23,24)        -76.8805         calculate D2E/DX2 analytically  !
 ! D52   D(10,11,14,15)        160.8608         calculate D2E/DX2 analytically  !
 ! D53   D(12,11,14,15)        -79.5524         calculate D2E/DX2 analytically  !
 ! D54   D(13,11,14,15)         42.7938         calculate D2E/DX2 analytically  !
 --------------------------------------------------------------------------------
 Trust Radius=3.00D-01 FncErr=1.00D-07 GrdErr=1.00D-07
 Number of steps in this run=      2 maximum allowed number of steps=      2.
 GradGradGradGradGradGradGradGradGradGradGradGradGradGradGradGradGradGrad

                          Input orientation:                          
 ---------------------------------------------------------------------
 Center     Atomic      Atomic             Coordinates (Angstroms)
 Number     Number       Type             X           Y           Z
 ---------------------------------------------------------------------
      1          6           0       -0.983952    0.369126    0.622068
      2          8           0       -0.461150   -0.183285    1.808512
      3          1           0       -0.781738    0.347608    2.542441
      4          1           0       -0.809670    1.449461    0.530529
      5          1           0       -2.070768    0.217541    0.524049
      6          6           0       -0.315129   -0.267051   -0.580576
      7          8           0        0.616741   -1.032507   -0.486266
      8          6           0       -0.894867    0.141900   -1.944022
      9          6           0        0.036183   -0.311128   -3.086539
     10          6           0       -0.554385   -0.026201   -4.467769
     11          6           0        0.431659   -0.306665   -5.593308
     12          1           0        0.701979   -1.369926   -5.606071
     13          1           0        1.329821    0.294103   -5.433817
     14          8           0       -0.244999    0.069838   -6.801049
     15          1           0        0.410459    0.199752   -7.491304
     16          1           0       -1.848206   -0.408895   -2.060474
     17          8           0       -1.123454    1.537573   -1.878809
     18          1           0       -1.219001    1.846492   -2.793377
     19          1           0        0.118157   -1.404216   -3.001926
     20          8           0        1.320616    0.285201   -2.997419
     21          1           0        1.723915   -0.066806   -2.194819
     22          1           0       -1.428884   -0.680500   -4.599222
     23          8           0       -0.978432    1.338158   -4.552045
     24          1           0       -1.113842    1.518656   -5.491515
 ---------------------------------------------------------------------
                    Distance matrix (angstroms):
                    1          2          3          4          5
     1  C    0.000000
     2  O    1.409301   0.000000
     3  H    1.931110   0.960873   0.000000
     4  H    1.098125   2.102514   2.294047   0.000000
     5  H    1.101705   2.097946   2.398421   1.762963   0.000000
     6  C    1.516048   2.395012   3.216950   2.103697   2.130093
     7  O    2.399000   2.673768   3.610198   3.037876   3.131463
     8  C    2.577671   3.791486   4.492602   2.800068   2.734930
     9  C    3.906045   4.921911   5.726111   4.110757   4.213678
    10  C    5.123207   6.278938   7.023850   5.217828   5.222745
    11  C    6.410269   7.456492   8.251716   6.490474   6.630157
    12  H    6.682543   7.598488   8.458699   6.920396   6.912781
    13  H    6.483280   7.475747   8.251196   6.440939   6.860469
    14  O    7.465808   8.615993   9.363015   7.481594   7.550649
    15  H    8.234068   9.348422  10.105406   8.209768   8.390631
    16  H    2.923745   4.116294   4.785026   3.353408   2.668654
    17  O    2.763895   4.122661   4.591322   2.431282   2.900623
    18  H    3.728689   5.086424   5.559568   3.372467   3.792664
    19  H    4.182430   4.996657   5.883767   4.634930   4.455782
    20  O    4.291708   5.146954   5.925693   4.282527   4.889457
    21  H    3.931595   4.562317   5.375097   4.018164   4.676828
    22  H    5.344300   6.499445   7.244249   5.588784   5.240839
    23  O    5.264076   6.560415   7.166003   5.086593   5.311846
    24  H    6.222073   7.524161   8.125645   6.030118   6.228613
                    6          7          8          9         10
     6  C    0.000000
     7  O    1.209627   0.000000
     8  C    1.536985   2.406085   0.000000
     9  C    2.530852   2.760227   1.541893   0.000000
    10  C    3.901989   4.270427   2.552152   1.528970   0.000000
    11  C    5.068209   5.161683   3.908730   2.537777   1.522426
    12  H    5.244658   5.131619   4.271550   2.812895   2.163280
    13  H    5.155065   5.171714   4.141385   2.747638   2.141513
    14  O    6.229983   6.467939   4.900840   3.744567   2.355661
    15  H    6.964376   7.115586   5.699084   4.450060   3.181783
    16  H    2.135542   2.990482   1.107155   2.147857   2.759619
    17  O    2.365474   3.401877   1.415771   2.494207   3.077652
    18  H    3.190695   4.120843   1.931864   2.513316   2.598516
    19  H    2.709947   2.591389   2.129754   1.099418   2.121304
    20  O    2.970146   2.921931   2.457345   1.418914   2.403025
    21  H    2.608367   2.253346   2.639030   1.924396   3.218478
    22  H    4.190573   4.607048   2.830477   2.138005   1.100061
    23  O    4.334654   4.969425   2.870504   2.428435   1.431221
    24  H    5.286210   5.878424   3.811576   3.233354   1.935881
                   11         12         13         14         15
    11  C    0.000000
    12  H    1.097160   0.000000
    13  H    1.092270   1.786855   0.000000
    14  O    1.434663   2.097060   2.097541   0.000000
    15  H    1.964509   2.470421   2.255523   0.960705   0.000000
    16  H    4.205847   4.471944   4.687590   5.027177   5.913200
    17  O    4.429119   5.067370   4.494759   5.210986   5.970156
    18  H    3.898767   4.684737   3.984762   4.490726   5.238074
    19  H    2.831635   2.669006   3.204139   4.091216   4.776260
    20  O    2.806989   3.150749   2.436432   4.118875   4.585923
    21  H    3.643787   3.791980   3.282784   5.011252   5.463422
    22  H    2.142331   2.455530   3.042508   2.610103   3.538667
    23  O    2.403753   3.356854   2.682462   2.684135   3.444449
    24  H    2.393895   3.413830   2.733925   2.137485   2.839394
                   16         17         18         19         20
    16  H    0.000000
    17  O    2.084948   0.000000
    18  H    2.453532   0.970049   0.000000
    19  H    2.396576   3.384836   3.521162   0.000000
    20  O    3.376546   2.965333   2.988129   2.073657   0.000000
    21  H    3.590979   3.283505   3.560862   2.240212   0.964741
    22  H    2.587439   3.523320   3.113008   2.338472   3.325372
    23  O    3.164906   2.684583   1.846399   3.335564   2.968366
    24  H    4.003348   3.612769   2.720016   4.032251   3.697095
                   21         22         23         24
    21  H    0.000000
    22  H    4.012221   0.000000
    23  O    3.851378   2.068844   0.000000
    24  H    4.629769   2.394103   0.966189   0.000000
 Stoichiometry    C6H12O6
 Framework group  C1[X(C6H12O6)]
 Deg. of freedom    66
 Full point group                 C1      NOp   1
 Largest Abelian subgroup         C1      NOp   1
 Largest concise Abelian subgroup C1      NOp   1
                         Standard orientation:                         
 ---------------------------------------------------------------------
 Center     Atomic      Atomic             Coordinates (Angstroms)
 Number     Number       Type             X           Y           Z
 ---------------------------------------------------------------------
      1          6           0       -3.197388    0.608933   -0.115209
      2          8           0       -4.370278   -0.172252   -0.100789
      3          1           0       -5.102200    0.406217    0.129301
      4          1           0       -3.057185    1.201639    0.798531
      5          1           0       -3.168537    1.319096   -0.956987
      6          6           0       -1.981276   -0.289885   -0.222898
      7          8           0       -2.048327   -1.496347   -0.166750
      8          6           0       -0.640265    0.441480   -0.393541
      9          6           0        0.537744   -0.531623   -0.186664
     10          6           0        1.891421    0.125419   -0.457962
     11          6           0        3.061888   -0.773854   -0.085003
     12          1           0        3.052333   -1.684217   -0.697300
     13          1           0        2.976774   -1.045084    0.969627
     14          8           0        4.240734    0.004978   -0.334003
     15          1           0        4.972321   -0.382903    0.153115
     16          1           0       -0.599524    0.786290   -1.444844
     17          8           0       -0.668693    1.541484    0.497296
     18          1           0        0.249206    1.836708    0.603594
     19          1           0        0.418969   -1.323536   -0.939981
     20          8           0        0.545248   -1.092088    1.116847
     21          1           0       -0.244506   -1.643038    1.175739
     22          1           0        1.948029    0.342764   -1.534852
     23          8           0        1.999588    1.353035    0.269811
     24          1           0        2.935402    1.592764    0.252415
 ---------------------------------------------------------------------
 Rotational constants (GHZ):      2.4897817      0.4158390      0.3795060
 Standard basis: 6-311G(d,p) (5D, 7F)
 There are   288 symmetry adapted basis functions of A   symmetry.
 Integral buffers will be    131072 words long.
 Raffenetti 2 integral format.
 Two-electron integral symmetry is turned on.
   288 basis functions,   480 primitive gaussians,   300 cartesian basis functions
    48 alpha electrons       48 beta electrons
       nuclear repulsion energy       785.4558695097 Hartrees.
 NAtoms=   24 NActive=   24 NUniq=   24 SFac= 1.00D+00 NAtFMM=   50 NAOKFM=F Big=F
 One-electron integrals computed using PRISM.
 NBasis=   288 RedAO= T  NBF=   288
 NBsUse=   288 1.00D-06 NBFU=   288
 Initial guess read from the checkpoint file:  /home/g09scr/Gau-31192.chk
 B after Tr=     0.000000    0.000000    0.000000
         Rot=    1.000000    0.000000    0.000000    0.000000 Ang=   0.00 deg.
 Initial guess orbital symmetries:
       Occupied  (A) (A) (A) (A) (A) (A) (A) (A) (A) (A) (A) (A)
                 (A) (A) (A) (A) (A) (A) (A) (A) (A) (A) (A) (A)
                 (A) (A) (A) (A) (A) (A) (A) (A) (A) (A) (A) (A)
                 (A) (A) (A) (A) (A) (A) (A) (A) (A) (A) (A) (A)
       Virtual   (A) (A) (A) (A) (A) (A) (A) (A) (A) (A) (A) (A)
                 (A) (A) (A) (A) (A) (A) (A) (A) (A) (A) (A) (A)
                 (A) (A) (A) (A) (A) (A) (A) (A) (A) (A) (A) (A)
                 (A) (A) (A) (A) (A) (A) (A) (A) (A) (A) (A) (A)
                 (A) (A) (A) (A) (A) (A) (A) (A) (A) (A) (A) (A)
                 (A) (A) (A) (A) (A) (A) (A) (A) (A) (A) (A) (A)
                 (A) (A) (A) (A) (A) (A) (A) (A) (A) (A) (A) (A)
                 (A) (A) (A) (A) (A) (A) (A) (A) (A) (A) (A) (A)
                 (A) (A) (A) (A) (A) (A) (A) (A) (A) (A) (A) (A)
                 (A) (A) (A) (A) (A) (A) (A) (A) (A) (A) (A) (A)
                 (A) (A) (A) (A) (A) (A) (A) (A) (A) (A) (A) (A)
                 (A) (A) (A) (A) (A) (A) (A) (A) (A) (A) (A) (A)
                 (A) (A) (A) (A) (A) (A) (A) (A) (A) (A) (A) (A)
                 (A) (A) (A) (A) (A) (A) (A) (A) (A) (A) (A) (A)
                 (A) (A) (A) (A) (A) (A) (A) (A) (A) (A) (A) (A)
                 (A) (A) (A) (A) (A) (A) (A) (A) (A) (A) (A) (A)
                 (A) (A) (A) (A) (A) (A) (A) (A) (A) (A) (A) (A)
                 (A) (A) (A) (A) (A) (A) (A) (A) (A) (A) (A) (A)
                 (A) (A) (A) (A) (A) (A) (A) (A) (A) (A) (A) (A)
                 (A) (A) (A) (A) (A) (A) (A) (A) (A) (A) (A) (A)
 Requested convergence on RMS density matrix=1.00D-08 within 128 cycles.
 Requested convergence on MAX density matrix=1.00D-06.
 Requested convergence on             energy=1.00D-06.
 No special actions if energy rises.
 Keep R1 ints in memory in canonical form, NReq=1033417329.
 SCF Done:  E(RB3LYP) =  -687.362461325     A.U. after    1 cycles
             Convg  =    0.1612D-08             -V/T =  2.0030
 Range of M.O.s used for correlation:     1   288
 NBasis=   288 NAE=    48 NBE=    48 NFC=     0 NFV=     0
 NROrb=    288 NOA=    48 NOB=    48 NVA=   240 NVB=   240
 Symmetrizing basis deriv contribution to polar:
 IMax=3 JMax=2 DiffMx= 0.00D+00
 G2DrvN: will do    25 centers at a time, making    1 passes doing MaxLOS=2.
 Calling FoFCou, ICntrl=  3107 FMM=F I1Cent=   0 AccDes= 0.00D+00.
 FoFDir/FoFCou used for L=0 through L=2.
 End of G2Drv Frequency-dependent properties file   721 does not exist.
 End of G2Drv Frequency-dependent properties file   722 does not exist.
          IDoAtm=111111111111111111111111
          Differentiating once with respect to electric field.
                with respect to dipole field.
          Differentiating once with respect to nuclear coordinates.
          Keep R1 ints in memory in canonical form, NReq=1020111207.
          There are    75 degrees of freedom in the 1st order CPHF.  IDoFFX=5.
     72 vectors produced by pass  0 Test12= 1.54D-14 1.33D-09 XBig12= 6.13D+01 3.09D+00.
 AX will form    72 AO Fock derivatives at one time.
     72 vectors produced by pass  1 Test12= 1.54D-14 1.33D-09 XBig12= 1.68D+01 1.23D+00.
     72 vectors produced by pass  2 Test12= 1.54D-14 1.33D-09 XBig12= 1.80D-01 4.74D-02.
     72 vectors produced by pass  3 Test12= 1.54D-14 1.33D-09 XBig12= 5.75D-04 2.77D-03.
     72 vectors produced by pass  4 Test12= 1.54D-14 1.33D-09 XBig12= 1.27D-06 1.14D-04.
     61 vectors produced by pass  5 Test12= 1.54D-14 1.33D-09 XBig12= 1.59D-09 3.39D-06.
