 Entering Gaussian System, Link 0=g09
 Input=S-S-S-Fructuose.inp
 Output=S-S-S-Fructuose.log
 Initial command:
 /usr/local/g09/l1.exe /home/g09scr/Gau-21436.inp -scrdir=/home/g09scr/
 Entering Link 1 = /usr/local/g09/l1.exe PID=     21438.
  
 Copyright (c) 1988,1990,1992,1993,1995,1998,2003,2009,2010,
            Gaussian, Inc.  All Rights Reserved.
  
 This is part of the Gaussian(R) 09 program.  It is based on
 the Gaussian(R) 03 system (copyright 2003, Gaussian, Inc.),
 the Gaussian(R) 98 system (copyright 1998, Gaussian, Inc.),
 the Gaussian(R) 94 system (copyright 1995, Gaussian, Inc.),
 the Gaussian 92(TM) system (copyright 1992, Gaussian, Inc.),
 the Gaussian 90(TM) system (copyright 1990, Gaussian, Inc.),
 the Gaussian 88(TM) system (copyright 1988, Gaussian, Inc.),
 the Gaussian 86(TM) system (copyright 1986, Carnegie Mellon
 University), and the Gaussian 82(TM) system (copyright 1983,
 Carnegie Mellon University). Gaussian is a federally registered
 trademark of Gaussian, Inc.
  
 This software contains proprietary and confidential information,
 including trade secrets, belonging to Gaussian, Inc.
  
 This software is provided under written license and may be
 used, copied, transmitted, or stored only in accord with that
 written license.
  
 The following legend is applicable only to US Government
 contracts under FAR:
  
                    RESTRICTED RIGHTS LEGEND
  
 Use, reproduction and disclosure by the US Government is
 subject to restrictions as set forth in subparagraphs (a)
 and (c) of the Commercial Computer Software - Restricted
 Rights clause in FAR 52.227-19.
  
 Gaussian, Inc.
 340 Quinnipiac St., Bldg. 40, Wallingford CT 06492
  
  
 ---------------------------------------------------------------
 Warning -- This program may not be used in any manner that
 competes with the business of Gaussian, Inc. or will provide
 assistance to any competitor of Gaussian, Inc.  The licensee
 of this program is prohibited from giving any competitor of
 Gaussian, Inc. access to this program.  By using this program,
 the user acknowledges that Gaussian, Inc. is engaged in the
 business of creating and licensing software in the field of
 computational chemistry and represents and warrants to the
 licensee that it is not a competitor of Gaussian, Inc. and that
 it will not use this program in any manner prohibited above.
 ---------------------------------------------------------------
  

 Cite this work as:
 Gaussian 09, Revision B.01,
 M. J. Frisch, G. W. Trucks, H. B. Schlegel, G. E. Scuseria, 
 M. A. Robb, J. R. Cheeseman, G. Scalmani, V. Barone, B. Mennucci, 
 G. A. Petersson, H. Nakatsuji, M. Caricato, X. Li, H. P. Hratchian, 
 A. F. Izmaylov, J. Bloino, G. Zheng, J. L. Sonnenberg, M. Hada, 
 M. Ehara, K. Toyota, R. Fukuda, J. Hasegawa, M. Ishida, T. Nakajima, 
 Y. Honda, O. Kitao, H. Nakai, T. Vreven, J. A. Montgomery, Jr., 
 J. E. Peralta, F. Ogliaro, M. Bearpark, J. J. Heyd, E. Brothers, 
 K. N. Kudin, V. N. Staroverov, T. Keith, R. Kobayashi, J. Normand, 
 K. Raghavachari, A. Rendell, J. C. Burant, S. S. Iyengar, J. Tomasi, 
 M. Cossi, N. Rega, J. M. Millam, M. Klene, J. E. Knox, J. B. Cross, 
 V. Bakken, C. Adamo, J. Jaramillo, R. Gomperts, R. E. Stratmann, 
 O. Yazyev, A. J. Austin, R. Cammi, C. Pomelli, J. W. Ochterski, 
 R. L. Martin, K. Morokuma, V. G. Zakrzewski, G. A. Voth, 
 P. Salvador, J. J. Dannenberg, S. Dapprich, A. D. Daniels, 
 O. Farkas, J. B. Foresman, J. V. Ortiz, J. Cioslowski, 
 and D. J. Fox, Gaussian, Inc., Wallingford CT, 2010.
 
 ******************************************
 Gaussian 09:  EM64L-G09RevB.01 12-Aug-2010
                23-Jan-2018 
 ******************************************
 %nproc=4
 Will use up to    4 processors via shared memory.
 %mem=60gb
 ------------------------------
 #B3LYP/6-311G** fopt test freq
 ------------------------------
 1/14=-1,18=20,19=15,26=3,38=1/1,3;
 2/9=110,12=2,14=103,17=6,18=5,40=1/2;
 3/5=4,6=6,7=101,11=2,16=1,25=1,30=1,71=1,74=-5/1,2,3;
 4//1;
 5/5=2,38=5/2;
 6/7=2,8=2,9=2,10=2,28=1/1;
 7//1,2,3,16;
 1/14=-1,18=20,19=15/3(2);
 2/9=110/2;
 99//99;
 2/9=110/2;
 3/5=4,6=6,7=101,11=2,16=1,25=1,30=1,71=1,74=-5/1,2,3;
 4/5=5,16=3/1;
 5/5=2,38=5/2;
 7//1,2,3,16;
 1/14=-1,18=20,19=15/3(-5);
 2/9=110/2;
 6/7=2,8=2,9=2,10=2,19=2,28=1/1;
 99/9=1/99;
 --------------------------
 Sugars/S-S-S-Fructuose.xyz
 --------------------------
 Symbolic Z-matrix:
 Charge =  0 Multiplicity = 1
 C                     0.        0.        0. 
 O                     0.        0.        1.41352 
 H                     0.92749   0.        1.70592 
 H                     0.51803  -0.89725  -0.34815 
 H                     0.51786   0.89695  -0.34677 
 C                    -1.42147   0.       -0.52884 
 O                    -2.38889  -0.0311    0.23329 
 C                    -1.59838   0.00492  -2.04619 
 C                    -0.29803   0.04539  -2.86317 
 C                    -0.4755    0.02154  -4.39287 
 C                     0.86828   0.04202  -5.12195 
 H                     1.4567   -0.85196  -4.89019 
 H                     1.45026   0.93508  -4.87855 
 O                     0.62907   0.0516   -6.5257 
 H                     1.49772   0.05882  -6.96259 
 H                    -2.18688  -0.88181  -2.30501 
 O                    -2.38065   1.13973  -2.3969 
 H                    -3.22003   0.81821  -2.76877 
 H                     0.31509   0.92124  -2.6144 
 O                     0.44258  -1.09678  -2.44321 
 H                     1.27832  -0.78635  -2.05615 
 H                    -0.89086  -0.93813  -4.72015 
 O                    -1.23294   1.15613  -4.81274 
 H                    -1.99454   0.83438  -5.32464 
 

 GradGradGradGradGradGradGradGradGradGradGradGradGradGradGradGradGradGrad
 Berny optimization.
 Initialization pass.
                           ----------------------------
                           !    Initial Parameters    !
                           ! (Angstroms and Degrees)  !
 --------------------------                            --------------------------
 ! Name  Definition              Value          Derivative Info.                !
 --------------------------------------------------------------------------------
 ! R1    R(1,2)                  1.4135         estimate D2E/DX2                !
 ! R2    R(1,4)                  1.093          estimate D2E/DX2                !
 ! R3    R(1,5)                  1.0922         estimate D2E/DX2                !
 ! R4    R(1,6)                  1.5167         estimate D2E/DX2                !
 ! R5    R(2,3)                  0.9725         estimate D2E/DX2                !
 ! R6    R(6,7)                  1.232          estimate D2E/DX2                !
 ! R7    R(6,8)                  1.5276         estimate D2E/DX2                !
 ! R8    R(8,9)                  1.5362         estimate D2E/DX2                !
 ! R9    R(8,16)                 1.0953         estimate D2E/DX2                !
 ! R10   R(8,17)                 1.4222         estimate D2E/DX2                !
 ! R11   R(9,10)                 1.5401         estimate D2E/DX2                !
 ! R12   R(9,19)                 1.0977         estimate D2E/DX2                !
 ! R13   R(9,20)                 1.4246         estimate D2E/DX2                !
 ! R14   R(10,11)                1.529          estimate D2E/DX2                !
 ! R15   R(10,22)                1.0957         estimate D2E/DX2                !
 ! R16   R(10,23)                1.4273         estimate D2E/DX2                !
 ! R17   R(11,12)                1.0951         estimate D2E/DX2                !
 ! R18   R(11,13)                1.0934         estimate D2E/DX2                !
 ! R19   R(11,14)                1.424          estimate D2E/DX2                !
 ! R20   R(14,15)                0.9724         estimate D2E/DX2                !
 ! R21   R(17,18)                0.9727         estimate D2E/DX2                !
 ! R22   R(20,21)                0.9719         estimate D2E/DX2                !
 ! R23   R(23,24)                0.9724         estimate D2E/DX2                !
 ! A1    A(2,1,4)              108.574          estimate D2E/DX2                !
 ! A2    A(2,1,5)              108.511          estimate D2E/DX2                !
 ! A3    A(2,1,6)              110.407          estimate D2E/DX2                !
 ! A4    A(4,1,5)              110.3838         estimate D2E/DX2                !
 ! A5    A(4,1,6)              109.4597         estimate D2E/DX2                !
 ! A6    A(5,1,6)              109.4917         estimate D2E/DX2                !
 ! A7    A(1,2,3)              107.498          estimate D2E/DX2                !
 ! A8    A(1,6,7)              121.351          estimate D2E/DX2                !
 ! A9    A(1,6,8)              117.057          estimate D2E/DX2                !
 ! A10   A(7,6,8)              121.5748         estimate D2E/DX2                !
 ! A11   A(6,8,9)              115.486          estimate D2E/DX2                !
 ! A12   A(6,8,16)             107.118          estimate D2E/DX2                !
 ! A13   A(6,8,17)             108.1312         estimate D2E/DX2                !
 ! A14   A(9,8,16)             110.516          estimate D2E/DX2                !
 ! A15   A(9,8,17)             108.265          estimate D2E/DX2                !
 ! A16   A(16,8,17)            106.9882         estimate D2E/DX2                !
 ! A17   A(8,9,10)             115.484          estimate D2E/DX2                !
 ! A18   A(8,9,19)             111.9187         estimate D2E/DX2                !
 ! A19   A(8,9,20)             105.1981         estimate D2E/DX2                !
 ! A20   A(10,9,19)            107.567          estimate D2E/DX2                !
 ! A21   A(10,9,20)            109.894          estimate D2E/DX2                !
 ! A22   A(19,9,20)            106.4113         estimate D2E/DX2                !
 ! A23   A(9,10,11)            111.847          estimate D2E/DX2                !
 ! A24   A(9,10,22)            110.727          estimate D2E/DX2                !
 ! A25   A(9,10,23)            109.938          estimate D2E/DX2                !
 ! A26   A(11,10,22)           101.6812         estimate D2E/DX2                !
 ! A27   A(11,10,23)           108.3891         estimate D2E/DX2                !
 ! A28   A(22,10,23)           114.0276         estimate D2E/DX2                !
 ! A29   A(10,11,12)           111.125          estimate D2E/DX2                !
 ! A30   A(10,11,13)           111.8759         estimate D2E/DX2                !
 ! A31   A(10,11,14)           108.815          estimate D2E/DX2                !
 ! A32   A(12,11,13)           109.4922         estimate D2E/DX2                !
 ! A33   A(12,11,14)           107.7211         estimate D2E/DX2                !
 ! A34   A(13,11,14)           107.6593         estimate D2E/DX2                !
 ! A35   A(11,14,15)           107.0319         estimate D2E/DX2                !
 ! A36   A(8,17,18)            107.768          estimate D2E/DX2                !
 ! A37   A(9,20,21)            107.96           estimate D2E/DX2                !
 ! A38   A(10,23,24)           107.9061         estimate D2E/DX2                !
 ! D1    D(4,1,2,3)             60.0            estimate D2E/DX2                !
 ! D2    D(5,1,2,3)            -60.0            estimate D2E/DX2                !
 ! D3    D(6,1,2,3)            180.0            estimate D2E/DX2                !
 ! D4    D(2,1,6,7)             -1.694          estimate D2E/DX2                !
 ! D5    D(2,1,6,8)            179.793          estimate D2E/DX2                !
 ! D6    D(4,1,6,7)            117.7715         estimate D2E/DX2                !
 ! D7    D(4,1,6,8)            -60.7415         estimate D2E/DX2                !
 ! D8    D(5,1,6,7)           -121.102          estimate D2E/DX2                !
 ! D9    D(5,1,6,8)             60.385          estimate D2E/DX2                !
 ! D10   D(1,6,8,9)             -1.4906         estimate D2E/DX2                !
 ! D11   D(1,6,8,16)           122.0863         estimate D2E/DX2                !
 ! D12   D(1,6,8,17)          -122.9186         estimate D2E/DX2                !
 ! D13   D(7,6,8,9)            180.0            estimate D2E/DX2                !
 ! D14   D(7,6,8,16)           -56.4232         estimate D2E/DX2                !
 ! D15   D(7,6,8,17)            58.5719         estimate D2E/DX2                !
 ! D16   D(6,8,9,10)           178.812          estimate D2E/DX2                !
 ! D17   D(6,8,9,19)           -57.6707         estimate D2E/DX2                !
 ! D18   D(6,8,9,20)            57.4731         estimate D2E/DX2                !
 ! D19   D(16,8,9,10)           57.041          estimate D2E/DX2                !
 ! D20   D(16,8,9,19)         -179.4417         estimate D2E/DX2                !
 ! D21   D(16,8,9,20)          -64.298          estimate D2E/DX2                !
 ! D22   D(17,8,9,10)          -59.832          estimate D2E/DX2                !
 ! D23   D(17,8,9,19)           63.6853         estimate D2E/DX2                !
 ! D24   D(17,8,9,20)          178.829          estimate D2E/DX2                !
 ! D25   D(6,8,17,18)         -115.0804         estimate D2E/DX2                !
 ! D26   D(9,8,17,18)          119.126          estimate D2E/DX2                !
 ! D27   D(16,8,17,18)           0.0            estimate D2E/DX2                !
 ! D28   D(8,9,10,11)         -179.087          estimate D2E/DX2                !
 ! D29   D(8,9,10,22)          -66.447          estimate D2E/DX2                !
 ! D30   D(8,9,10,23)           60.45           estimate D2E/DX2                !
 ! D31   D(19,9,10,11)          55.1349         estimate D2E/DX2                !
 ! D32   D(19,9,10,22)         167.775          estimate D2E/DX2                !
 ! D33   D(19,9,10,23)         -65.3281         estimate D2E/DX2                !
 ! D34   D(20,9,10,11)         -60.315          estimate D2E/DX2                !
 ! D35   D(20,9,10,22)          52.325          estimate D2E/DX2                !
 ! D36   D(20,9,10,23)         179.222          estimate D2E/DX2                !
 ! D37   D(8,9,20,21)         -118.8985         estimate D2E/DX2                !
 ! D38   D(10,9,20,21)         116.1799         estimate D2E/DX2                !
 ! D39   D(19,9,20,21)           0.0            estimate D2E/DX2                !
 ! D40   D(9,10,11,12)          62.961          estimate D2E/DX2                !
 ! D41   D(9,10,11,13)         -59.764          estimate D2E/DX2                !
 ! D42   D(9,10,11,14)        -178.59           estimate D2E/DX2                !
 ! D43   D(22,10,11,12)        -55.2198         estimate D2E/DX2                !
 ! D44   D(22,10,11,13)       -177.9447         estimate D2E/DX2                !
 ! D45   D(22,10,11,14)         63.2292         estimate D2E/DX2                !
 ! D46   D(23,10,11,12)       -175.677          estimate D2E/DX2                !
 ! D47   D(23,10,11,13)         61.598          estimate D2E/DX2                !
 ! D48   D(23,10,11,14)        -57.228          estimate D2E/DX2                !
 ! D49   D(9,10,23,24)        -125.0235         estimate D2E/DX2                !
 ! D50   D(11,10,23,24)        112.4458         estimate D2E/DX2                !
 ! D51   D(22,10,23,24)          0.0            estimate D2E/DX2                !
 ! D52   D(10,11,14,15)       -179.647          estimate D2E/DX2                !
 ! D53   D(12,11,14,15)        -59.077          estimate D2E/DX2                !
 ! D54   D(13,11,14,15)         58.9155         estimate D2E/DX2                !
 --------------------------------------------------------------------------------
 Trust Radius=3.00D-01 FncErr=1.00D-07 GrdErr=1.00D-06
 Number of steps in this run=    125 maximum allowed number of steps=    144.
 GradGradGradGradGradGradGradGradGradGradGradGradGradGradGradGradGradGrad

                          Input orientation:                          
 ---------------------------------------------------------------------
 Center     Atomic      Atomic             Coordinates (Angstroms)
 Number     Number       Type             X           Y           Z
 ---------------------------------------------------------------------
      1          6           0        0.000000    0.000000    0.000000
      2          8           0        0.000000    0.000000    1.413516
      3          1           0        0.927487    0.000000    1.705916
      4          1           0        0.518025   -0.897246   -0.348146
      5          1           0        0.517855    0.896952   -0.346765
      6          6           0       -1.421472    0.000000   -0.528838
      7          8           0       -2.388894   -0.031101    0.233292
      8          6           0       -1.598381    0.004915   -2.046186
      9          6           0       -0.298033    0.045392   -2.863171
     10          6           0       -0.475503    0.021535   -4.392866
     11          6           0        0.868280    0.042020   -5.121945
     12          1           0        1.456696   -0.851959   -4.890189
     13          1           0        1.450260    0.935079   -4.878545
     14          8           0        0.629072    0.051603   -6.525700
     15          1           0        1.497715    0.058819   -6.962591
     16          1           0       -2.186879   -0.881805   -2.305009
     17          8           0       -2.380652    1.139726   -2.396895
     18          1           0       -3.220032    0.818209   -2.768774
     19          1           0        0.315092    0.921242   -2.614396
     20          8           0        0.442584   -1.096782   -2.443213
     21          1           0        1.278324   -0.786348   -2.056148
     22          1           0       -0.890860   -0.938129   -4.720149
     23          8           0       -1.232935    1.156129   -4.812737
     24          1           0       -1.994538    0.834382   -5.324640
 ---------------------------------------------------------------------
                    Distance matrix (angstroms):
                    1          2          3          4          5
     1  C    0.000000
     2  O    1.413516   0.000000
     3  H    1.941747   0.972486   0.000000
     4  H    1.092980   2.043735   2.278570   0.000000
     5  H    1.092219   2.042373   2.277240   1.794199   0.000000
     6  C    1.516658   2.406932   3.242180   2.144609   2.144449
     7  O    2.400460   2.664716   3.628770   3.088439   3.105952
     8  C    2.596483   3.811087   4.523086   2.859442   2.856959
     9  C    2.878998   4.287299   4.730805   2.807110   2.779051
    10  C    4.418579   5.825859   6.258114   4.265093   4.257235
    11  C    5.195190   6.593021   6.828247   4.877915   4.863749
    12  H    5.173176   6.525680   6.671919   4.638244   4.958106
    13  H    5.174730   6.524390   6.671041   4.975037   4.626863
    14  O    6.556154   7.964267   8.237185   6.250985   6.237485
    15  H    7.122098   8.509158   8.687441   6.754608   6.740308
    16  H    3.297436   4.403118   5.154064   3.338571   3.783422
    17  O    3.565331   4.635268   5.392200   4.092549   3.558555
    18  H    4.324833   5.341313   6.155829   4.772347   4.454675
    19  H    2.789809   4.143917   4.459687   2.912725   2.276808
    20  O    2.714425   4.034002   4.318950   2.105899   2.894086
    21  H    2.545624   3.780347   3.859346   1.872865   2.516705
    22  H    4.894234   6.268617   6.743944   4.593587   4.947574
    23  O    5.100902   6.451588   6.963971   5.216779   4.803888
    24  H    5.746840   7.076519   7.659187   5.837551   5.576314
                    6          7          8          9         10
     6  C    0.000000
     7  O    1.231956   0.000000
     8  C    1.527634   2.412929   0.000000
     9  C    2.591001   3.737062   1.536232   0.000000
    10  C    3.978195   5.006513   2.601545   1.540140   0.000000
    11  C    5.132384   6.268420   3.942853   2.542117   1.528963
    12  H    5.294437   6.458516   4.260995   2.827210   2.178007
    13  H    5.295391   6.465561   4.263997   2.812437   2.186095
    14  O    6.337961   7.402630   5.002976   3.778053   2.402076
    15  H    7.065288   8.178909   5.810314   4.475504   3.240134
    16  H    2.125608   2.684675   1.095259   2.176919   2.846749
    17  O    2.389276   2.879025   1.422231   2.398392   2.977221
    18  H    2.986904   3.228702   1.952776   3.023944   3.287066
    19  H    2.865989   4.040770   2.196337   1.097691   2.144171
    20  O    2.888333   4.039384   2.353063   1.424584   2.427893
    21  H    3.199987   4.388670   2.983560   1.956522   3.031309
    22  H    4.327669   5.253892   2.922327   2.183375   1.095715
    23  O    4.441168   5.311136   3.018716   2.430758   1.427340
    24  H    4.901460   5.638722   3.404881   3.091838   1.958671
                   11         12         13         14         15
    11  C    0.000000
    12  H    1.095054   0.000000
    13  H    1.093389   1.787088   0.000000
    14  O    1.424023   2.043595   2.041568   0.000000
    15  H    1.945366   2.264078   2.261268   0.972351   0.000000
    16  H    4.257062   4.467626   4.811750   5.158979   6.012826
    17  O    4.380230   4.990848   4.569065   5.223933   6.087337
    18  H    4.780604   5.400153   5.126053   5.433027   6.357823
    19  H    2.714194   3.102698   2.532818   4.019099   4.587937
    20  O    2.941716   2.660085   3.327869   4.245028   4.782624
    21  H    3.202099   2.840407   3.310407   4.593537   4.983535
    22  H    2.053462   2.355283   3.002472   2.559253   3.424579
    23  O    2.398323   3.357459   2.693089   2.760668   3.644504
    24  H    2.977356   3.865684   3.475021   2.989752   3.934490
                   16         17         18         19         20
    16  H    0.000000
    17  O    2.032874   0.000000
    18  H    2.042677   0.972741   0.000000
    19  H    3.099445   2.713315   3.539993   0.000000
    20  O    2.641854   3.602051   4.145834   2.029280   0.000000
    21  H    3.475439   4.148973   4.828835   2.038460   0.971931
    22  H    2.741485   3.454630   3.509648   3.057086   2.643422
    23  O    3.369256   2.674662   2.870632   2.698937   3.673910
    24  H    3.478572   2.968840   2.834528   3.561932   4.239290
                   21         22         23         24
    21  H    0.000000
    22  H    3.438793   0.000000
    23  O    4.204572   2.124030   0.000000
    24  H    4.901166   2.173778   0.972422   0.000000
 Stoichiometry    C6H12O6
 Framework group  C1[X(C6H12O6)]
 Deg. of freedom    66
 Full point group                 C1      NOp   1
 Largest Abelian subgroup         C1      NOp   1
 Largest concise Abelian subgroup C1      NOp   1
                         Standard orientation:                         
 ---------------------------------------------------------------------
 Center     Atomic      Atomic             Coordinates (Angstroms)
 Number     Number       Type             X           Y           Z
 ---------------------------------------------------------------------
      1          6           0        2.369185   -0.985248   -0.335150
      2          8           0        3.758644   -1.206886   -0.470459
      3          1           0        3.879135   -2.111948   -0.805234
      4          1           0        1.966760   -1.717742    0.369203
      5          1           0        1.902096   -1.103522   -1.315345
      6          6           0        2.105188    0.414510    0.185654
      7          8           0        3.029612    1.180570    0.461892
      8          6           0        0.645324    0.817998    0.384804
      9          6           0       -0.393287   -0.244670   -0.005109
     10          6           0       -1.864127    0.151422    0.222421
     11          6           0       -2.823410   -0.972111   -0.171503
     12          1           0       -2.668592   -1.859624    0.450988
     13          1           0       -2.721776   -1.243660   -1.225747
     14          8           0       -4.160573   -0.527124    0.032997
     15          1           0       -4.746635   -1.260851   -0.219277
     16          1           0        0.529470    1.100173    1.436729
     17          8           0        0.399603    1.986201   -0.388283
     18          1           0        0.196963    2.712026    0.226811
     19          1           0       -0.291341   -0.551806   -1.054012
     20          8           0       -0.071726   -1.387665    0.782040
     21          1           0        0.146904   -2.116294    0.177101
     22          1           0       -2.075754    0.258963    1.292113
     23          8           0       -2.182297    1.307385   -0.552057
     24          1           0       -2.536567    1.983036    0.050931
 ---------------------------------------------------------------------
 Rotational constants (GHZ):      1.8327531      0.4586354      0.3880071
 Standard basis: 6-311G(d,p) (5D, 7F)
 There are   288 symmetry adapted basis functions of A   symmetry.
 Integral buffers will be    131072 words long.
 Raffenetti 2 integral format.
 Two-electron integral symmetry is turned on.
   288 basis functions,   480 primitive gaussians,   300 cartesian basis functions
    48 alpha electrons       48 beta electrons
       nuclear repulsion energy       781.5408310482 Hartrees.
 NAtoms=   24 NActive=   24 NUniq=   24 SFac= 1.00D+00 NAtFMM=   50 NAOKFM=F Big=F
 One-electron integrals computed using PRISM.
 NBasis=   288 RedAO= T  NBF=   288
 NBsUse=   288 1.00D-06 NBFU=   288
 Harris functional with IExCor=  402 diagonalized for initial guess.
 ExpMin= 1.03D-01 ExpMax= 8.59D+03 ExpMxC= 1.30D+03 IAcc=1 IRadAn=         1 AccDes= 0.00D+00
 HarFok:  IExCor=  402 AccDes= 0.00D+00 IRadAn=         1 IDoV= 1
 ScaDFX=  1.000000  1.000000  1.000000  1.000000
 FoFCou: FMM=F IPFlag=           0 FMFlag=      100000 FMFlg1=           0
         NFxFlg=           0 DoJE=T BraDBF=F KetDBF=T FulRan=T
         Omega=  0.000000  0.000000  1.000000  0.000000  0.000000 ICntrl=     500 IOpCl=  0
         NMat0=    1 NMatS0=    1 NMatT0=    0 NMatD0=    1 NMtDS0=    0 NMtDT0=    0
         I1Cent=           4 NGrid=           0.
 Petite list used in FoFCou.
 Initial guess orbital symmetries:
       Occupied  (A) (A) (A) (A) (A) (A) (A) (A) (A) (A) (A) (A)
                 (A) (A) (A) (A) (A) (A) (A) (A) (A) (A) (A) (A)
                 (A) (A) (A) (A) (A) (A) (A) (A) (A) (A) (A) (A)
                 (A) (A) (A) (A) (A) (A) (A) (A) (A) (A) (A) (A)
       Virtual   (A) (A) (A) (A) (A) (A) (A) (A) (A) (A) (A) (A)
                 (A) (A) (A) (A) (A) (A) (A) (A) (A) (A) (A) (A)
                 (A) (A) (A) (A) (A) (A) (A) (A) (A) (A) (A) (A)
                 (A) (A) (A) (A) (A) (A) (A) (A) (A) (A) (A) (A)
                 (A) (A) (A) (A) (A) (A) (A) (A) (A) (A) (A) (A)
                 (A) (A) (A) (A) (A) (A) (A) (A) (A) (A) (A) (A)
                 (A) (A) (A) (A) (A) (A) (A) (A) (A) (A) (A) (A)
                 (A) (A) (A) (A) (A) (A) (A) (A) (A) (A) (A) (A)
                 (A) (A) (A) (A) (A) (A) (A) (A) (A) (A) (A) (A)
                 (A) (A) (A) (A) (A) (A) (A) (A) (A) (A) (A) (A)
                 (A) (A) (A) (A) (A) (A) (A) (A) (A) (A) (A) (A)
                 (A) (A) (A) (A) (A) (A) (A) (A) (A) (A) (A) (A)
                 (A) (A) (A) (A) (A) (A) (A) (A) (A) (A) (A) (A)
                 (A) (A) (A) (A) (A) (A) (A) (A) (A) (A) (A) (A)
                 (A) (A) (A) (A) (A) (A) (A) (A) (A) (A) (A) (A)
                 (A) (A) (A) (A) (A) (A) (A) (A) (A) (A) (A) (A)
                 (A) (A) (A) (A) (A) (A) (A) (A) (A) (A) (A) (A)
                 (A) (A) (A) (A) (A) (A) (A) (A) (A) (A) (A) (A)
                 (A) (A) (A) (A) (A) (A) (A) (A) (A) (A) (A) (A)
                 (A) (A) (A) (A) (A) (A) (A) (A) (A) (A) (A) (A)
 The electronic state of the initial guess is 1-A.
 Requested convergence on RMS density matrix=1.00D-08 within 128 cycles.
 Requested convergence on MAX density matrix=1.00D-06.
 Requested convergence on             energy=1.00D-06.
 No special actions if energy rises.
 Keep R1 ints in memory in canonical form, NReq=1033417440.
 Integral accuracy reduced to 1.0D-05 until final iterations.
 Initial convergence to 1.0D-05 achieved.  Increase integral accuracy.
 SCF Done:  E(RB3LYP) =  -687.312138243     A.U. after   14 cycles
             Convg  =    0.5084D-08             -V/T =  2.0030

 **********************************************************************

            Population analysis using the SCF density.

 **********************************************************************

 Orbital symmetries:
       Occupied  (A) (A) (A) (A) (A) (A) (A) (A) (A) (A) (A) (A)
                 (A) (A) (A) (A) (A) (A) (A) (A) (A) (A) (A) (A)
                 (A) (A) (A) (A) (A) (A) (A) (A) (A) (A) (A) (A)
                 (A) (A) (A) (A) (A) (A) (A) (A) (A) (A) (A) (A)
       Virtual   (A) (A) (A) (A) (A) (A) (A) (A) (A) (A) (A) (A)
                 (A) (A) (A) (A) (A) (A) (A) (A) (A) (A) (A) (A)
                 (A) (A) (A) (A) (A) (A) (A) (A) (A) (A) (A) (A)
                 (A) (A) (A) (A) (A) (A) (A) (A) (A) (A) (A) (A)
                 (A) (A) (A) (A) (A) (A) (A) (A) (A) (A) (A) (A)
                 (A) (A) (A) (A) (A) (A) (A) (A) (A) (A) (A) (A)
                 (A) (A) (A) (A) (A) (A) (A) (A) (A) (A) (A) (A)
                 (A) (A) (A) (A) (A) (A) (A) (A) (A) (A) (A) (A)
                 (A) (A) (A) (A) (A) (A) (A) (A) (A) (A) (A) (A)
                 (A) (A) (A) (A) (A) (A) (A) (A) (A) (A) (A) (A)
                 (A) (A) (A) (A) (A) (A) (A) (A) (A) (A) (A) (A)
                 (A) (A) (A) (A) (A) (A) (A) (A) (A) (A) (A) (A)
                 (A) (A) (A) (A) (A) (A) (A) (A) (A) (A) (A) (A)
                 (A) (A) (A) (A) (A) (A) (A) (A) (A) (A) (A) (A)
                 (A) (A) (A) (A) (A) (A) (A) (A) (A) (A) (A) (A)
                 (A) (A) (A) (A) (A) (A) (A) (A) (A) (A) (A) (A)
                 (A) (A) (A) (A) (A) (A) (A) (A) (A) (A) (A) (A)
                 (A) (A) (A) (A) (A) (A) (A) (A) (A) (A) (A) (A)
                 (A) (A) (A) (A) (A) (A) (A) (A) (A) (A) (A) (A)
                 (A) (A) (A) (A) (A) (A) (A) (A) (A) (A) (A) (A)
 The electronic state is 1-A.
 Alpha  occ. eigenvalues --  -19.14272 -19.12051 -19.11890 -19.11693 -19.11544
 Alpha  occ. eigenvalues --  -19.11249 -10.26338 -10.24323 -10.23941 -10.23475
 Alpha  occ. eigenvalues --  -10.23011 -10.21906  -1.06055  -1.04605  -1.03457
 Alpha  occ. eigenvalues --   -1.02808  -1.01560  -1.01161  -0.78935  -0.75935
 Alpha  occ. eigenvalues --   -0.71440  -0.65598  -0.59719  -0.57526  -0.54790
 Alpha  occ. eigenvalues --   -0.53240  -0.53120  -0.52212  -0.50357  -0.48782
 Alpha  occ. eigenvalues --   -0.47606  -0.45213  -0.44389  -0.43231  -0.42088
 Alpha  occ. eigenvalues --   -0.41033  -0.37331  -0.36791  -0.35728  -0.35307
 Alpha  occ. eigenvalues --   -0.34025  -0.33106  -0.31933  -0.30864  -0.28019
 Alpha  occ. eigenvalues --   -0.27521  -0.26708  -0.24304
 Alpha virt. eigenvalues --   -0.03854   0.00077   0.01707   0.02987   0.03201
 Alpha virt. eigenvalues --    0.05710   0.06565   0.08765   0.09140   0.10682
 Alpha virt. eigenvalues --    0.11848   0.12860   0.13650   0.15696   0.17408
 Alpha virt. eigenvalues --    0.19539   0.19664   0.20305   0.23073   0.24067
 Alpha virt. eigenvalues --    0.26697   0.27520   0.29602   0.31558   0.35099
 Alpha virt. eigenvalues --    0.37058   0.38050   0.38521   0.38800   0.39456
 Alpha virt. eigenvalues --    0.40556   0.42159   0.43845   0.45035   0.46859
 Alpha virt. eigenvalues --    0.47451   0.48596   0.48781   0.50342   0.52284
 Alpha virt. eigenvalues --    0.52398   0.53780   0.54211   0.54980   0.58030
 Alpha virt. eigenvalues --    0.59068   0.59971   0.60121   0.61538   0.62150
 Alpha virt. eigenvalues --    0.62909   0.64906   0.66828   0.68633   0.72468
 Alpha virt. eigenvalues --    0.73038   0.77553   0.78008   0.78630   0.80291
 Alpha virt. eigenvalues --    0.81446   0.83489   0.84159   0.85977   0.86712
 Alpha virt. eigenvalues --    0.87838   0.88196   0.90586   0.91833   0.92902
 Alpha virt. eigenvalues --    0.94368   0.96260   0.98765   1.01297   1.06605
 Alpha virt. eigenvalues --    1.08393   1.09731   1.10456   1.13569   1.17981
 Alpha virt. eigenvalues --    1.18657   1.22377   1.24363   1.30221   1.32286
 Alpha virt. eigenvalues --    1.33348   1.34181   1.36593   1.37802   1.38205
 Alpha virt. eigenvalues --    1.39576   1.40581   1.41989   1.43523   1.44681
 Alpha virt. eigenvalues --    1.45104   1.46010   1.48143   1.49971   1.52148
 Alpha virt. eigenvalues --    1.52337   1.55912   1.56496   1.57071   1.58655
 Alpha virt. eigenvalues --    1.59855   1.60931   1.62198   1.63186   1.64086
 Alpha virt. eigenvalues --    1.64655   1.67023   1.68155   1.69148   1.72256
 Alpha virt. eigenvalues --    1.74187   1.75717   1.77982   1.78240   1.83509
 Alpha virt. eigenvalues --    1.85053   1.86928   1.91060   1.91976   1.93897
 Alpha virt. eigenvalues --    1.94797   1.96479   1.98218   2.00022   2.01254
 Alpha virt. eigenvalues --    2.01841   2.04351   2.06565   2.08427   2.10438
 Alpha virt. eigenvalues --    2.14342   2.16041   2.17040   2.19599   2.22363
 Alpha virt. eigenvalues --    2.23853   2.30183   2.33146   2.35770   2.39879
 Alpha virt. eigenvalues --    2.40617   2.42890   2.44363   2.48603   2.49875
 Alpha virt. eigenvalues --    2.50239   2.51835   2.53124   2.55830   2.59643
 Alpha virt. eigenvalues --    2.62844   2.68060   2.69508   2.73429   2.74788
 Alpha virt. eigenvalues --    2.77314   2.81210   2.83474   2.84610   2.87221
 Alpha virt. eigenvalues --    2.88767   2.90539   2.92411   2.93448   2.96171
 Alpha virt. eigenvalues --    2.99227   3.01550   3.04960   3.09295   3.10316
 Alpha virt. eigenvalues --    3.10657   3.12952   3.14239   3.16301   3.16783
 Alpha virt. eigenvalues --    3.19277   3.20079   3.22806   3.24201   3.27190
 Alpha virt. eigenvalues --    3.28584   3.30102   3.31874   3.32501   3.34132
 Alpha virt. eigenvalues --    3.44283   3.48818   3.58331   3.72277   3.77637
 Alpha virt. eigenvalues --    3.78140   3.78765   3.80206   3.81910   3.84240
 Alpha virt. eigenvalues --    3.87865   3.89130   3.90492   3.92023   3.92585
 Alpha virt. eigenvalues --    4.01806   4.04316   4.09028   4.20081   4.35624
 Alpha virt. eigenvalues --    4.83378   4.85552   4.88829   4.93232   5.01548
 Alpha virt. eigenvalues --    5.02574   5.06730   5.21102   5.25637   5.26872
 Alpha virt. eigenvalues --    5.28222   5.33194   5.56302   5.58487   5.61340
 Alpha virt. eigenvalues --    5.62293   5.65714   5.66680  23.67791  23.75557
 Alpha virt. eigenvalues --   23.76944  23.78962  23.79759  23.82527  49.85585
 Alpha virt. eigenvalues --   49.88725  49.90104  49.91122  49.92155  49.96642
          Condensed to atoms (all electrons):
              1          2          3          4          5          6
     1  C    5.059490   0.256932  -0.034214   0.385462   0.383629   0.190650
     2  O    0.256932   7.913018   0.302476  -0.023373  -0.030556  -0.038436
     3  H   -0.034214   0.302476   0.500111  -0.004740  -0.006115   0.010471
     4  H    0.385462  -0.023373  -0.004740   0.566356  -0.030940  -0.040135
     5  H    0.383629  -0.030556  -0.006115  -0.030940   0.604744  -0.050236
     6  C    0.190650  -0.038436   0.010471  -0.040135  -0.050236   4.981228
     7  O   -0.090182   0.004192  -0.000071   0.000994   0.001537   0.651157
     8  C   -0.119129   0.002377  -0.000644   0.011353   0.010096   0.211593
     9  C    0.002731  -0.000087   0.000058  -0.016125  -0.000156  -0.055089
    10  C    0.000171  -0.000001  -0.000003   0.001382   0.000656   0.001648
    11  C    0.000000   0.000000   0.000000  -0.000287  -0.000026  -0.000056
    12  H   -0.000007   0.000000   0.000000  -0.000072   0.000014   0.000010
    13  H   -0.000009   0.000000   0.000000   0.000007  -0.000101   0.000030
    14  O    0.000000   0.000000   0.000000   0.000000   0.000000   0.000000
    15  H    0.000000   0.000000   0.000000   0.000000   0.000000   0.000000
    16  H    0.009848  -0.000127   0.000038  -0.000565   0.000240  -0.027920
    17  O    0.004114  -0.000008   0.000010   0.000173   0.000145  -0.054844
    18  H   -0.000180   0.000001  -0.000001  -0.000062  -0.000137   0.000545
    19  H   -0.002900  -0.000282   0.000008   0.001793   0.005328  -0.005527
    20  O   -0.012566   0.000314  -0.000081   0.026303  -0.001936   0.001403
    21  H    0.007826  -0.000746  -0.000097  -0.003934  -0.000613  -0.002608
    22  H   -0.000131   0.000000   0.000000   0.000143  -0.000068  -0.000039
    23  O   -0.000033   0.000000   0.000000  -0.000030  -0.000032   0.000143
    24  H   -0.000006   0.000000   0.000000   0.000011   0.000006   0.000256
              7          8          9         10         11         12
     1  C   -0.090182  -0.119129   0.002731   0.000171   0.000000  -0.000007
     2  O    0.004192   0.002377  -0.000087  -0.000001   0.000000   0.000000
     3  H   -0.000071  -0.000644   0.000058  -0.000003   0.000000   0.000000
     4  H    0.000994   0.011353  -0.016125   0.001382  -0.000287  -0.000072
     5  H    0.001537   0.010096  -0.000156   0.000656  -0.000026   0.000014
     6  C    0.651157   0.211593  -0.055089   0.001648  -0.000056   0.000010
     7  O    7.780047  -0.071382   0.004851  -0.000117   0.000001   0.000000
     8  C   -0.071382   5.253926   0.169420  -0.016139   0.006195  -0.000149
     9  C    0.004851   0.169420   5.468536   0.148202  -0.070107   0.004153
    10  C   -0.000117  -0.016139   0.148202   5.180939   0.297754  -0.040518
    11  C    0.000001   0.006195  -0.070107   0.297754   4.835969   0.383776
    12  H    0.000000  -0.000149   0.004153  -0.040518   0.383776   0.636036
    13  H    0.000000  -0.000664   0.000275  -0.044575   0.380740  -0.047791
    14  O    0.000000  -0.000049   0.003161  -0.050623   0.280640  -0.038282
    15  H    0.000000   0.000020  -0.000713   0.009876  -0.034592  -0.005627
    16  H    0.002834   0.360961  -0.030476  -0.012510  -0.000333   0.000116
    17  O    0.000183   0.277969  -0.078557   0.003282  -0.000409  -0.000003
    18  H    0.002096  -0.023467   0.005661   0.001809   0.000476  -0.000015
    19  H   -0.000019  -0.053450   0.388726  -0.038967  -0.015091   0.000195
    20  O   -0.000076  -0.044259   0.170713  -0.036974   0.004394   0.012314
    21  H    0.000070   0.012591  -0.024616  -0.002916   0.002431   0.001989
    22  H   -0.000006  -0.014688  -0.030920   0.361864  -0.051602  -0.009889
    23  O    0.000000   0.002336  -0.065630   0.265338  -0.055909   0.005606
    24  H   -0.000004   0.002263   0.004513  -0.028640   0.001620  -0.000203
             13         14         15         16         17         18
     1  C   -0.000009   0.000000   0.000000   0.009848   0.004114  -0.000180
     2  O    0.000000   0.000000   0.000000  -0.000127  -0.000008   0.000001
     3  H    0.000000   0.000000   0.000000   0.000038   0.000010  -0.000001
     4  H    0.000007   0.000000   0.000000  -0.000565   0.000173  -0.000062
     5  H   -0.000101   0.000000   0.000000   0.000240   0.000145  -0.000137
     6  C    0.000030   0.000000   0.000000  -0.027920  -0.054844   0.000545
     7  O    0.000000   0.000000   0.000000   0.002834   0.000183   0.002096
     8  C   -0.000664  -0.000049   0.000020   0.360961   0.277969  -0.023467
     9  C    0.000275   0.003161  -0.000713  -0.030476  -0.078557   0.005661
    10  C   -0.044575  -0.050623   0.009876  -0.012510   0.003282   0.001809
    11  C    0.380740   0.280640  -0.034592  -0.000333  -0.000409   0.000476
    12  H   -0.047791  -0.038282  -0.005627   0.000116  -0.000003  -0.000015
    13  H    0.646417  -0.036312  -0.006316  -0.000045  -0.000034  -0.000010
    14  O   -0.036312   7.926104   0.308630  -0.000008   0.000000  -0.000005
    15  H   -0.006316   0.308630   0.491370   0.000001   0.000000   0.000001
    16  H   -0.000045  -0.000008   0.000001   0.589249  -0.022263  -0.019928
    17  O   -0.000034   0.000000   0.000000  -0.022263   7.921166   0.310157
    18  H   -0.000010  -0.000005   0.000001  -0.019928   0.310157   0.476045
    19  H    0.009535  -0.000315  -0.000044   0.010595   0.006632  -0.001059
    20  O   -0.000653   0.000027   0.000009   0.005245   0.001642  -0.000301
    21  H   -0.000414  -0.000032  -0.000005  -0.001338  -0.000510   0.000083
    22  H    0.014591   0.008443  -0.000733   0.004187  -0.000023  -0.000140
    23  O    0.001500   0.003159  -0.000068  -0.000062  -0.006794   0.008445
    24  H   -0.001042   0.003199  -0.000058  -0.000367   0.006331  -0.000249
             19         20         21         22         23         24
     1  C   -0.002900  -0.012566   0.007826  -0.000131  -0.000033  -0.000006
     2  O   -0.000282   0.000314  -0.000746   0.000000   0.000000   0.000000
     3  H    0.000008  -0.000081  -0.000097   0.000000   0.000000   0.000000
     4  H    0.001793   0.026303  -0.003934   0.000143  -0.000030   0.000011
     5  H    0.005328  -0.001936  -0.000613  -0.000068  -0.000032   0.000006
     6  C   -0.005527   0.001403  -0.002608  -0.000039   0.000143   0.000256
     7  O   -0.000019  -0.000076   0.000070  -0.000006   0.000000  -0.000004
     8  C   -0.053450  -0.044259   0.012591  -0.014688   0.002336   0.002263
     9  C    0.388726   0.170713  -0.024616  -0.030920  -0.065630   0.004513
    10  C   -0.038967  -0.036974  -0.002916   0.361864   0.265338  -0.028640
    11  C   -0.015091   0.004394   0.002431  -0.051602  -0.055909   0.001620
    12  H    0.000195   0.012314   0.001989  -0.009889   0.005606  -0.000203
    13  H    0.009535  -0.000653  -0.000414   0.014591   0.001500  -0.001042
    14  O   -0.000315   0.000027  -0.000032   0.008443   0.003159   0.003199
    15  H   -0.000044   0.000009  -0.000005  -0.000733  -0.000068  -0.000058
    16  H    0.010595   0.005245  -0.001338   0.004187  -0.000062  -0.000367
    17  O    0.006632   0.001642  -0.000510  -0.000023  -0.006794   0.006331
    18  H   -0.001059  -0.000301   0.000083  -0.000140   0.008445  -0.000249
    19  H    0.612674  -0.033909  -0.022950   0.013021   0.005686  -0.001250
    20  O   -0.033909   8.007020   0.302075   0.003200   0.001300  -0.000167
    21  H   -0.022950   0.302075   0.492366  -0.001346   0.000030  -0.000010
    22  H    0.013021   0.003200  -0.001346   0.638216  -0.027475  -0.017297
    23  O    0.005686   0.001300   0.000030  -0.027475   7.924126   0.311781
    24  H   -0.001250  -0.000167  -0.000010  -0.017297   0.311781   0.477968
 Mulliken atomic charges:
              1
     1  C   -0.041494
     2  O   -0.385693
     3  H    0.232796
     4  H    0.126286
     5  H    0.114522
     6  C    0.225758
     7  O   -0.286105
     8  C    0.022920
     9  C    0.001476
    10  C   -0.000938
    11  C    0.034416
    12  H    0.098345
    13  H    0.084870
    14  O   -0.407738
    15  H    0.238251
    16  H    0.132629
    17  O   -0.368361
    18  H    0.240233
    19  H    0.121571
    20  O   -0.405039
    21  H    0.242676
    22  H    0.110693
    23  O   -0.373416
    24  H    0.241344
 Sum of Mulliken atomic charges =   0.00000
 Mulliken charges with hydrogens summed into heavy atoms:
              1
     1  C    0.199314
     2  O   -0.152897
     6  C    0.225758
     7  O   -0.286105
     8  C    0.155549
     9  C    0.123047
    10  C    0.109754
    11  C    0.217631
    14  O   -0.169488
    17  O   -0.128128
    20  O   -0.162363
    23  O   -0.132072
 Sum of Mulliken charges with hydrogens summed into heavy atoms =   0.00000
 Electronic spatial extent (au):  <R**2>=           2752.8802
 Charge=              0.0000 electrons
 Dipole moment (field-independent basis, Debye):
    X=             -3.3989    Y=             -4.0107    Z=              0.1183  Tot=              5.2585
 Quadrupole moment (field-independent basis, Debye-Ang):
   XX=            -85.3262   YY=            -57.2466   ZZ=            -71.9454
   XY=             -6.0682   XZ=             -3.9666   YZ=             10.2728
 Traceless Quadrupole moment (field-independent basis, Debye-Ang):
   XX=            -13.8201   YY=             14.2595   ZZ=             -0.4393
   XY=             -6.0682   XZ=             -3.9666   YZ=             10.2728
 Octapole moment (field-independent basis, Debye-Ang**2):
  XXX=            -82.6857  YYY=             -1.6494  ZZZ=             -1.7591  XYY=             -8.4936
  XXY=            -59.7420  XXZ=            -15.3103  XZZ=              4.2824  YZZ=             -0.2909
  YYZ=              1.6949  XYZ=             -3.8892
 Hexadecapole moment (field-independent basis, Debye-Ang**3):
 XXXX=          -2607.6282 YYYY=           -482.2019 ZZZZ=           -163.4484 XXXY=             22.5186
 XXXZ=             -4.2507 YYYX=            -83.9367 YYYZ=             34.0695 ZZZX=             -3.1069
 ZZZY=              7.0787 XXYY=           -389.3303 XXZZ=           -441.1299 YYZZ=           -132.0756
 XXYZ=             43.9912 YYXZ=            -24.4836 ZZXY=             -7.8147
 N-N= 7.815408310482D+02 E-N=-3.179329411220D+03  KE= 6.852627286912D+02
 Calling FoFJK, ICntrl=      2127 FMM=F ISym2X=0 I1Cent= 0 IOpClX= 0 NMat=1 NMatS=1 NMatT=0.
 ***** Axes restored to original set *****
 -------------------------------------------------------------------
 Center     Atomic                   Forces (Hartrees/Bohr)
 Number     Number              X              Y              Z
 -------------------------------------------------------------------
      1        6           0.004988631   -0.002461474    0.024724738
      2        8           0.004307309    0.002087975    0.009959523
      3        1          -0.010967713   -0.000121134   -0.003779511
      4        1          -0.004154403    0.002528076   -0.001887772
      5        1           0.001652962    0.003109925   -0.009320112
      6        6          -0.023113001   -0.008143997    0.033231029
      7        8           0.031312099    0.002379619   -0.030943009
      8        6          -0.012434936    0.013251787   -0.016308196
      9        6           0.004328806   -0.001007878    0.002657697
     10        6           0.008861531    0.001533091   -0.008862291
     11        6           0.011696607    0.001047016   -0.007540857
     12        1          -0.000931531    0.000251609    0.008903274
     13        1          -0.000253734    0.003379914    0.008451899
     14        8           0.001915279   -0.001758285   -0.008933142
     15        1          -0.010868760   -0.000224255    0.004558770
     16        1           0.008432929   -0.007305906    0.001629887
     17        8          -0.018026864    0.000980163    0.002740986
     18        1           0.011197326    0.007603906    0.006759740
     19        1          -0.010835519    0.006381128   -0.001280128
     20        8           0.021023369   -0.011493778   -0.007055831
     21        1          -0.009347505   -0.006905234   -0.009346989
     22        1          -0.011721165    0.001131733    0.004671144
     23        8          -0.008314695   -0.012125747   -0.008084484
     24        1           0.011252978    0.005881745    0.005053636
 -------------------------------------------------------------------
 Cartesian Forces:  Max     0.033231029 RMS     0.010778078

 GradGradGradGradGradGradGradGradGradGradGradGradGradGradGradGradGradGrad
 Berny optimization.
 Internal  Forces:  Max     0.044977398 RMS     0.010412383
 Search for a local minimum.
 Step number   1 out of a maximum of  125
 All quantities printed in internal units (Hartrees-Bohrs-Radians)
 Mixed Optimization -- RFO/linear search
 Second derivative matrix not updated -- first step.
 ITU=  0
     Eigenvalues ---    0.00235   0.00287   0.00383   0.00400   0.00474
     Eigenvalues ---    0.00546   0.01330   0.01367   0.01374   0.01398
     Eigenvalues ---    0.01513   0.03781   0.04406   0.04529   0.04772
     Eigenvalues ---    0.04838   0.05234   0.05249   0.05567   0.06358
     Eigenvalues ---    0.07013   0.07362   0.07927   0.08492   0.11472
     Eigenvalues ---    0.11550   0.13692   0.13970   0.16000   0.16000
     Eigenvalues ---    0.16000   0.16000   0.16000   0.16590   0.17086
     Eigenvalues ---    0.18243   0.19519   0.19782   0.19825   0.22028
     Eigenvalues ---    0.22170   0.24991   0.25000   0.28507   0.28855
     Eigenvalues ---    0.29519   0.29643   0.30691   0.33939   0.34160
     Eigenvalues ---    0.34212   0.34235   0.34424   0.34470   0.34557
     Eigenvalues ---    0.41374   0.41777   0.41860   0.42126   0.43452
     Eigenvalues ---    0.52821   0.52872   0.52885   0.52899   0.52984
     Eigenvalues ---    0.90276
 RFO step:  Lambda=-4.53340041D-02 EMin= 2.34970769D-03
 Linear search not attempted -- first point.
 Maximum step size (   0.300) exceeded in Quadratic search.
    -- Step size scaled by   0.816
 Iteration  1 RMS(Cart)=  0.21395858 RMS(Int)=  0.00892682
 Iteration  2 RMS(Cart)=  0.01893580 RMS(Int)=  0.00069820
 Iteration  3 RMS(Cart)=  0.00021153 RMS(Int)=  0.00069470
 Iteration  4 RMS(Cart)=  0.00000008 RMS(Int)=  0.00069470
 Variable       Old X    -DE/DX   Delta X   Delta X   Delta X     New X
                                 (Linear)    (Quad)   (Total)
    R1        2.67116   0.00618   0.00000   0.01051   0.01051   2.68167
    R2        2.06543  -0.00345   0.00000  -0.00721  -0.00721   2.05822
    R3        2.06400   0.00630   0.00000   0.01315   0.01315   2.07714
    R4        2.86607   0.00294   0.00000   0.00682   0.00682   2.87289
    R5        1.83773  -0.01160   0.00000  -0.01649  -0.01649   1.82125
    R6        2.32806  -0.04379   0.00000  -0.03768  -0.03768   2.29037
    R7        2.88681   0.02230   0.00000   0.05325   0.05325   2.94006
    R8        2.90306   0.01435   0.00000   0.03506   0.03506   2.93812
    R9        2.06974   0.00100   0.00000   0.00210   0.00210   2.07184
   R10        2.68763   0.00826   0.00000   0.01445   0.01445   2.70207
   R11        2.91044   0.00159   0.00000   0.00392   0.00392   2.91437
   R12        2.07433  -0.00125   0.00000  -0.00265  -0.00265   2.07168
   R13        2.69207   0.01599   0.00000   0.02816   0.02816   2.72024
   R14        2.88932  -0.00118   0.00000  -0.00283  -0.00283   2.88650
   R15        2.07060   0.00206   0.00000   0.00434   0.00434   2.07494
   R16        2.69728  -0.00564   0.00000  -0.01002  -0.01002   2.68726
   R17        2.06935   0.00118   0.00000   0.00249   0.00249   2.07184
   R18        2.06621   0.00451   0.00000   0.00944   0.00944   2.07564
   R19        2.69101   0.00580   0.00000   0.01020   0.01020   2.70121
   R20        1.83748  -0.01176   0.00000  -0.01670  -0.01670   1.82078
   R21        1.83821  -0.01476   0.00000  -0.02099  -0.02099   1.81722
   R22        1.83668  -0.01396   0.00000  -0.01981  -0.01981   1.81688
   R23        1.83761  -0.01342   0.00000  -0.01907  -0.01907   1.81854
    A1        1.89497   0.00658   0.00000   0.02942   0.02915   1.92412
    A2        1.89387   0.00678   0.00000   0.02994   0.02964   1.92352
    A3        1.92697  -0.00863   0.00000  -0.02530  -0.02523   1.90174
    A4        1.92656  -0.00087   0.00000  -0.00438  -0.00502   1.92154
    A5        1.91043  -0.00164   0.00000  -0.01334  -0.01328   1.89715
    A6        1.91099  -0.00215   0.00000  -0.01584  -0.01579   1.89520
    A7        1.87619  -0.00056   0.00000  -0.00222  -0.00222   1.87397
    A8        2.11798  -0.01673   0.00000  -0.04578  -0.04650   2.07148
    A9        2.04303   0.04498   0.00000   0.12470   0.12400   2.16703
   A10        2.12188  -0.02814   0.00000  -0.07730  -0.07798   2.04390
   A11        2.01561   0.03506   0.00000   0.11992   0.12089   2.13650
   A12        1.86956  -0.00695   0.00000  -0.02965  -0.02863   1.84093
   A13        1.88725  -0.02570   0.00000  -0.08506  -0.08667   1.80058
   A14        1.92887  -0.01609   0.00000  -0.06052  -0.05970   1.86917
   A15        1.88958   0.00187   0.00000   0.01526   0.01675   1.90634
   A16        1.86730   0.01022   0.00000   0.03466   0.03344   1.90074
   A17        2.01558   0.00155   0.00000  -0.00429  -0.00361   2.01197
   A18        1.95335  -0.00656   0.00000  -0.01986  -0.02126   1.93209
   A19        1.83605   0.01707   0.00000   0.06423   0.06336   1.89942
   A20        1.87740   0.00299   0.00000  -0.00261  -0.00221   1.87519
   A21        1.91801  -0.02175   0.00000  -0.08796  -0.08737   1.83064
   A22        1.85723   0.00660   0.00000   0.05400   0.05323   1.91045
   A23        1.95210  -0.00794   0.00000  -0.02365  -0.02357   1.92853
   A24        1.93255  -0.00410   0.00000  -0.02455  -0.02424   1.90831
   A25        1.91878   0.00896   0.00000   0.03066   0.03069   1.94947
   A26        1.77467   0.00863   0.00000   0.04330   0.04321   1.81788
   A27        1.89175  -0.00206   0.00000  -0.00616  -0.00599   1.88575
   A28        1.99016  -0.00419   0.00000  -0.02077  -0.02072   1.96944
   A29        1.93950  -0.00318   0.00000  -0.02406  -0.02407   1.91543
   A30        1.95260  -0.00345   0.00000  -0.02362  -0.02356   1.92905
   A31        1.89918  -0.01116   0.00000  -0.03179  -0.03166   1.86752
   A32        1.91100   0.00042   0.00000  -0.00012  -0.00153   1.90947
   A33        1.88009   0.00848   0.00000   0.03820   0.03759   1.91768
   A34        1.87901   0.00969   0.00000   0.04588   0.04538   1.92439
   A35        1.86806   0.00148   0.00000   0.00589   0.00589   1.87395
   A36        1.88091   0.00530   0.00000   0.02104   0.02104   1.90195
   A37        1.88426   0.00430   0.00000   0.01708   0.01708   1.90133
   A38        1.88332   0.00258   0.00000   0.01027   0.01027   1.89359
    D1        1.04720   0.00321   0.00000   0.01326   0.01380   1.06100
    D2       -1.04720  -0.00350   0.00000  -0.01595  -0.01650  -1.06370
    D3        3.14159   0.00010   0.00000   0.00001   0.00002  -3.14157
    D4       -0.02957  -0.00042   0.00000  -0.00551  -0.00519  -0.03475
    D5        3.13798  -0.00457   0.00000  -0.07441  -0.07470   3.06328
    D6        2.05550   0.00135   0.00000   0.00680   0.00709   2.06259
    D7       -1.06014  -0.00281   0.00000  -0.06211  -0.06243  -1.12257
    D8       -2.11363  -0.00211   0.00000  -0.01689  -0.01658  -2.13021
    D9        1.05392  -0.00626   0.00000  -0.08580  -0.08610   0.96782
   D10       -0.02602   0.00591   0.00000   0.06615   0.06447   0.03846
   D11        2.13081   0.00361   0.00000   0.04654   0.04549   2.17629
   D12       -2.14533  -0.00068   0.00000   0.02994   0.03172  -2.11361
   D13        3.14159   0.00156   0.00000  -0.00343  -0.00447   3.13712
   D14       -0.98477  -0.00074   0.00000  -0.02304  -0.02346  -1.00823
   D15        1.02227  -0.00503   0.00000  -0.03964  -0.03722   0.98505
   D16        3.12086   0.00085   0.00000   0.01726   0.01576   3.13662
   D17       -1.00654   0.00067   0.00000  -0.00638  -0.00735  -1.01390
   D18        1.00309   0.01504   0.00000   0.08456   0.08336   1.08645
   D19        0.99555  -0.00295   0.00000   0.01646   0.01638   1.01193
   D20       -3.13185  -0.00313   0.00000  -0.00718  -0.00674  -3.13859
   D21       -1.12221   0.01124   0.00000   0.08376   0.08397  -1.03824
   D22       -1.04427  -0.00736   0.00000  -0.00040   0.00036  -1.04390
   D23        1.11152  -0.00754   0.00000  -0.02404  -0.02275   1.08877
   D24        3.12116   0.00683   0.00000   0.06690   0.06796  -3.09407
   D25       -2.00853   0.01544   0.00000   0.06712   0.06695  -1.94158
   D26        2.07914  -0.01247   0.00000  -0.03586  -0.03524   2.04390
   D27        0.00000  -0.00008   0.00000   0.00846   0.00801   0.00801
   D28       -3.12566  -0.00436   0.00000   0.00034  -0.00017  -3.12583
   D29       -1.15972  -0.00082   0.00000   0.02508   0.02485  -1.13487
   D30        1.05505  -0.00262   0.00000   0.00285   0.00252   1.05757
   D31        0.96229   0.00078   0.00000   0.03201   0.03217   0.99446
   D32        2.92823   0.00432   0.00000   0.05674   0.05719   2.98542
   D33       -1.14019   0.00253   0.00000   0.03451   0.03487  -1.10532
   D34       -1.05269   0.00268   0.00000   0.01545   0.01533  -1.03737
   D35        0.91324   0.00622   0.00000   0.04018   0.04034   0.95359
   D36        3.12801   0.00442   0.00000   0.01795   0.01802  -3.13715
   D37       -2.07517  -0.00405   0.00000  -0.05437  -0.05656  -2.13173
   D38        2.02772  -0.00400   0.00000  -0.03833  -0.03839   1.98933
   D39        0.00000  -0.00013   0.00000  -0.02032  -0.01807  -0.01807
   D40        1.09888  -0.00564   0.00000  -0.04308  -0.04320   1.05567
   D41       -1.04308  -0.00141   0.00000  -0.00853  -0.00876  -1.05184
   D42       -3.11698  -0.00409   0.00000  -0.03040  -0.03054   3.13566
   D43       -0.96377  -0.00216   0.00000  -0.02829  -0.02810  -0.99186
   D44       -3.10572   0.00206   0.00000   0.00626   0.00634  -3.09938
   D45        1.10356  -0.00062   0.00000  -0.01561  -0.01544   1.08812
   D46       -3.06614  -0.00086   0.00000  -0.02389  -0.02383  -3.08998
   D47        1.07509   0.00336   0.00000   0.01066   0.01060   1.08569
   D48       -0.99882   0.00068   0.00000  -0.01121  -0.01117  -1.00999
   D49       -2.18207  -0.00262   0.00000  -0.01427  -0.01429  -2.19636
   D50        1.96255   0.00291   0.00000  -0.00031  -0.00038   1.96217
   D51        0.00000  -0.00408   0.00000  -0.03813  -0.03805  -0.03804
   D52       -3.13543   0.00020   0.00000   0.00286   0.00284  -3.13260
   D53       -1.03109  -0.00505   0.00000  -0.02191  -0.02298  -1.05407
   D54        1.02827   0.00510   0.00000   0.02257   0.02366   1.05193
         Item               Value     Threshold  Converged?
 Maximum Force            0.044977     0.000450     NO 
 RMS     Force            0.010412     0.000300     NO 
 Maximum Displacement     0.815972     0.001800     NO 
 RMS     Displacement     0.223385     0.001200     NO 
 Predicted change in Energy=-2.555045D-02
 GradGradGradGradGradGradGradGradGradGradGradGradGradGradGradGradGradGrad

                          Input orientation:                          
 ---------------------------------------------------------------------
 Center     Atomic      Atomic             Coordinates (Angstroms)
 Number     Number       Type             X           Y           Z
 ---------------------------------------------------------------------
      1          6           0       -0.037349    0.021719    0.282031
      2          8           0       -0.326434    0.086110    1.669859
      3          1           0        0.515351    0.122873    2.137710
      4          1           0        0.541863   -0.873255    0.058846
      5          1           0        0.515939    0.917873   -0.032561
      6          6           0       -1.344152   -0.037726   -0.492528
      7          8           0       -2.386377   -0.060664    0.125709
      8          6           0       -1.441243   -0.015639   -2.045150
      9          6           0       -0.183446    0.020430   -2.958386
     10          6           0       -0.469966    0.031684   -4.473712
     11          6           0        0.836512    0.044814   -5.264979
     12          1           0        1.421171   -0.852282   -5.029565
     13          1           0        1.425787    0.938961   -5.020640
     14          8           0        0.485868    0.046555   -6.650722
     15          1           0        1.306789    0.046555   -7.155149
     16          1           0       -2.010215   -0.912971   -2.315519
     17          8           0       -2.244868    1.138181   -2.304826
     18          1           0       -3.097116    0.854731   -2.648434
     19          1           0        0.433265    0.898606   -2.734067
     20          8           0        0.586299   -1.175538   -2.736399
     21          1           0        1.472567   -0.928841   -2.457016
     22          1           0       -0.948060   -0.914292   -4.760390
     23          8           0       -1.228501    1.171864   -4.856861
     24          1           0       -2.010474    0.872887   -5.331428
 ---------------------------------------------------------------------
                    Distance matrix (angstroms):
                    1          2          3          4          5
     1  C    0.000000
     2  O    1.419078   0.000000
     3  H    1.938879   0.963761   0.000000
     4  H    1.089164   2.066321   2.305352   0.000000
     5  H    1.099176   2.073561   2.311298   1.793646   0.000000
     6  C    1.520266   2.393116   3.225165   2.135222   2.141186
     7  O    2.355664   2.578625   3.535796   3.039632   3.066924
     8  C    2.718103   3.880006   4.619930   3.015794   2.958466
     9  C    3.243709   4.630920   5.144804   3.229309   3.139267
    10  C    4.775390   6.145489   6.685063   4.731469   4.634778
    11  C    5.615469   7.031794   7.410063   5.410432   5.314433
    12  H    5.577115   6.986916   7.289806   5.163870   5.378006
    13  H    5.576775   6.968530   7.262015   5.465037   5.070424
    14  O    6.952513   8.360232   8.788813   6.772554   6.675339
    15  H    7.557709   8.974951   9.326812   7.312516   7.219134
    16  H    3.393098   4.440329   5.223285   3.486014   3.865920
    17  O    3.579309   4.537110   5.327830   4.171173   3.582426
    18  H    4.317836   5.187978   6.040919   4.853604   4.461047
    19  H    3.176044   4.542231   4.933833   3.309327   2.702839
    20  O    3.306551   4.673323   5.044585   2.811893   3.420242
    21  H    3.268912   4.614935   4.809768   2.683069   3.194287
    22  H    5.208793   6.537227   7.127487   5.044462   5.277546
    23  O    5.399063   6.677624   7.284601   5.610782   5.136287
    24  H    6.010710   7.243828   7.920248   6.214378   5.870501
                    6          7          8          9         10
     6  C    0.000000
     7  O    1.212014   0.000000
     8  C    1.555811   2.368108   0.000000
     9  C    2.726000   3.790927   1.554785   0.000000
    10  C    4.076622   4.983557   2.616015   1.542217   0.000000
    11  C    5.247703   6.281533   3.944505   2.522157   1.527468
    12  H    5.375427   6.457626   4.219019   2.761558   2.160270
    13  H    5.397247   6.482033   4.240833   2.772403   2.171672
    14  O    6.424907   7.360796   4.992887   3.752600   2.377648
    15  H    7.171130   8.164672   5.802382   4.453571   3.216703
    16  H    2.129082   2.612953   1.096373   2.149791   2.814701
    17  O    2.340613   2.713808   1.429876   2.434332   3.013085
    18  H    2.918440   3.006488   1.965556   3.046573   3.303175
    19  H    3.010054   4.129031   2.196413   1.096287   2.143302
    20  O    3.171153   4.274507   2.436004   1.439487   2.364601
    21  H    3.547844   4.723944   3.081210   1.973541   2.960254
    22  H    4.374917   5.164437   2.902299   2.169230   1.098011
    23  O    4.530329   5.261730   3.059598   2.454006   1.422037
    24  H    4.968718   5.549159   3.451540   3.113847   1.953577
                   11         12         13         14         15
    11  C    0.000000
    12  H    1.096370   0.000000
    13  H    1.098384   1.791272   0.000000
    14  O    1.429419   2.076258   2.082548   0.000000
    15  H    1.947795   2.310648   2.316610   0.963513   0.000000
    16  H    4.209575   4.375402   4.749046   5.093634   5.945185
    17  O    4.410540   4.982569   4.570453   5.247417   6.109955
    18  H    4.793298   5.385035   5.107945   5.432241   6.352796
    19  H    2.701311   3.051373   2.493019   4.008609   4.586393
    20  O    2.818791   2.461731   3.223912   4.101893   4.640902
    21  H    3.039280   2.574201   3.172230   4.417255   4.801180
    22  H    2.087867   2.385279   3.022818   2.559830   3.426724
    23  O    2.387694   3.338825   2.669515   2.724578   3.602242
    24  H    2.965713   3.852729   3.450919   2.941953   3.874664
                   16         17         18         19         20
    16  H    0.000000
    17  O    2.064558   0.000000
    18  H    2.101655   0.961633   0.000000
    19  H    3.070438   2.722874   3.531692   0.000000
    20  O    2.643476   3.681719   4.206813   2.079783   0.000000
    21  H    3.485691   4.256179   4.909152   2.120487   0.961449
    22  H    2.665628   3.453137   3.494030   3.049696   2.553243
    23  O    3.378761   2.747184   2.910231   2.709684   3.646938
    24  H    3.504996   3.047236   2.894750   3.566344   4.203981
                   21         22         23         24
    21  H    0.000000
    22  H    3.341433   0.000000
    23  O    4.179471   2.107131   0.000000
    24  H    4.862103   2.156112   0.962332   0.000000
 Stoichiometry    C6H12O6
 Framework group  C1[X(C6H12O6)]
 Deg. of freedom    66
 Full point group                 C1      NOp   1
 Largest Abelian subgroup         C1      NOp   1
 Largest concise Abelian subgroup C1      NOp   1
                         Standard orientation:                         
 ---------------------------------------------------------------------
 Center     Atomic      Atomic             Coordinates (Angstroms)
 Number     Number       Type             X           Y           Z
 ---------------------------------------------------------------------
      1          6           0        2.671526   -0.976262   -0.380889
      2          8           0        4.086673   -0.902940   -0.456814
      3          1           0        4.397099   -1.728267   -0.845797
      4          1           0        2.370741   -1.811302    0.250390
      5          1           0        2.242666   -1.089476   -1.386598
      6          6           0        2.142189    0.311550    0.229480
      7          8           0        2.935537    1.156793    0.583231
      8          6           0        0.631201    0.648614    0.383923
      9          6           0       -0.490878   -0.342404   -0.035814
     10          6           0       -1.931376    0.157354    0.195789
     11          6           0       -2.941518   -0.905647   -0.231766
     12          1           0       -2.791994   -1.817396    0.358473
     13          1           0       -2.826759   -1.138873   -1.298950
     14          8           0       -4.242939   -0.371140    0.020908
     15          1           0       -4.884582   -1.041104   -0.239476
     16          1           0        0.487313    0.866151    1.448820
     17          8           0        0.490446    1.861677   -0.359859
     18          1           0        0.310001    2.583106    0.249827
     19          1           0       -0.400293   -0.603632   -1.096662
     20          8           0       -0.380201   -1.534864    0.762881
     21          1           0       -0.268095   -2.291392    0.180230
     22          1           0       -2.106239    0.276031    1.273271
     23          8           0       -2.201276    1.343222   -0.541136
     24          1           0       -2.522644    2.014947    0.068448
 ---------------------------------------------------------------------
 Rotational constants (GHZ):      1.9593673      0.4230645      0.3679749
 Standard basis: 6-311G(d,p) (5D, 7F)
 There are   288 symmetry adapted basis functions of A   symmetry.
 Integral buffers will be    131072 words long.
 Raffenetti 2 integral format.
 Two-electron integral symmetry is turned on.
   288 basis functions,   480 primitive gaussians,   300 cartesian basis functions
    48 alpha electrons       48 beta electrons
       nuclear repulsion energy       771.7320589513 Hartrees.
 NAtoms=   24 NActive=   24 NUniq=   24 SFac= 1.00D+00 NAtFMM=   50 NAOKFM=F Big=F
 One-electron integrals computed using PRISM.
 NBasis=   288 RedAO= T  NBF=   288
 NBsUse=   288 1.00D-06 NBFU=   288
 Initial guess read from the read-write file.
 B after Tr=     0.000000    0.000000    0.000000
         Rot=    1.000000    0.000000    0.000000    0.000000 Ang=   0.00 deg.
 Initial guess orbital symmetries:
       Occupied  (A) (A) (A) (A) (A) (A) (A) (A) (A) (A) (A) (A)
                 (A) (A) (A) (A) (A) (A) (A) (A) (A) (A) (A) (A)
                 (A) (A) (A) (A) (A) (A) (A) (A) (A) (A) (A) (A)
                 (A) (A) (A) (A) (A) (A) (A) (A) (A) (A) (A) (A)
       Virtual   (A) (A) (A) (A) (A) (A) (A) (A) (A) (A) (A) (A)
                 (A) (A) (A) (A) (A) (A) (A) (A) (A) (A) (A) (A)
                 (A) (A) (A) (A) (A) (A) (A) (A) (A) (A) (A) (A)
                 (A) (A) (A) (A) (A) (A) (A) (A) (A) (A) (A) (A)
                 (A) (A) (A) (A) (A) (A) (A) (A) (A) (A) (A) (A)
                 (A) (A) (A) (A) (A) (A) (A) (A) (A) (A) (A) (A)
                 (A) (A) (A) (A) (A) (A) (A) (A) (A) (A) (A) (A)
                 (A) (A) (A) (A) (A) (A) (A) (A) (A) (A) (A) (A)
                 (A) (A) (A) (A) (A) (A) (A) (A) (A) (A) (A) (A)
                 (A) (A) (A) (A) (A) (A) (A) (A) (A) (A) (A) (A)
                 (A) (A) (A) (A) (A) (A) (A) (A) (A) (A) (A) (A)
                 (A) (A) (A) (A) (A) (A) (A) (A) (A) (A) (A) (A)
                 (A) (A) (A) (A) (A) (A) (A) (A) (A) (A) (A) (A)
                 (A) (A) (A) (A) (A) (A) (A) (A) (A) (A) (A) (A)
                 (A) (A) (A) (A) (A) (A) (A) (A) (A) (A) (A) (A)
                 (A) (A) (A) (A) (A) (A) (A) (A) (A) (A) (A) (A)
                 (A) (A) (A) (A) (A) (A) (A) (A) (A) (A) (A) (A)
                 (A) (A) (A) (A) (A) (A) (A) (A) (A) (A) (A) (A)
                 (A) (A) (A) (A) (A) (A) (A) (A) (A) (A) (A) (A)
                 (A) (A) (A) (A) (A) (A) (A) (A) (A) (A) (A) (A)
 Harris functional with IExCor=  402 diagonalized for initial guess.
 ExpMin= 1.03D-01 ExpMax= 8.59D+03 ExpMxC= 1.30D+03 IAcc=1 IRadAn=         1 AccDes= 0.00D+00
 HarFok:  IExCor=  402 AccDes= 0.00D+00 IRadAn=         1 IDoV= 1
 ScaDFX=  1.000000  1.000000  1.000000  1.000000
 FoFCou: FMM=F IPFlag=           0 FMFlag=      100000 FMFlg1=           0
         NFxFlg=           0 DoJE=T BraDBF=F KetDBF=T FulRan=T
         Omega=  0.000000  0.000000  1.000000  0.000000  0.000000 ICntrl=     500 IOpCl=  0
         NMat0=    1 NMatS0=    1 NMatT0=    0 NMatD0=    1 NMtDS0=    0 NMtDT0=    0
         I1Cent=           4 NGrid=           0.
 Petite list used in FoFCou.
 Requested convergence on RMS density matrix=1.00D-08 within 128 cycles.
 Requested convergence on MAX density matrix=1.00D-06.
 Requested convergence on             energy=1.00D-06.
 No special actions if energy rises.
 Keep R1 ints in memory in canonical form, NReq=1033417454.
 Integral accuracy reduced to 1.0D-05 until final iterations.
 Initial convergence to 1.0D-05 achieved.  Increase integral accuracy.
 SCF Done:  E(RB3LYP) =  -687.322095219     A.U. after   13 cycles
             Convg  =    0.6182D-08             -V/T =  2.0031
 Calling FoFJK, ICntrl=      2127 FMM=F ISym2X=0 I1Cent= 0 IOpClX= 0 NMat=1 NMatS=1 NMatT=0.
 ***** Axes restored to original set *****
 -------------------------------------------------------------------
 Center     Atomic                   Forces (Hartrees/Bohr)
 Number     Number              X              Y              Z
 -------------------------------------------------------------------
      1        6          -0.000571523    0.004200066    0.007120568
      2        8           0.000709532    0.000176058   -0.001801646
      3        1          -0.001828067   -0.000169164   -0.001799874
      4        1           0.004570732   -0.003199027   -0.007028557
      5        1           0.002132197   -0.001206931   -0.005062624
      6        6          -0.009886908   -0.003421442    0.014869856
      7        8           0.008524397   -0.002247458   -0.011151903
      8        6          -0.006602862    0.005845188   -0.011026577
      9        6           0.002690622   -0.001315376    0.003965268
     10        6           0.001869460    0.003460337   -0.005106857
     11        6           0.003896230   -0.002076099   -0.007249971
     12        1          -0.000163458    0.001586217    0.002328183
     13        1          -0.001138493    0.001503503    0.002287964
     14        8           0.001888476   -0.001001895    0.000375166
     15        1          -0.002728361   -0.000096968    0.000888974
     16        1           0.003611880   -0.003460019    0.002347293
     17        8           0.000380394    0.000926384   -0.001438894
     18        1           0.002997850    0.001334406    0.002373694
     19        1          -0.004031739    0.002651608    0.002030226
     20        8           0.001018991   -0.002180789    0.010119367
     21        1          -0.001693530   -0.000881967   -0.000374309
     22        1          -0.006017148    0.001733055    0.003664295
     23        8          -0.003872397   -0.004192520   -0.000370761
     24        1           0.004243725    0.002032832    0.000041120
 -------------------------------------------------------------------
 Cartesian Forces:  Max     0.014869856 RMS     0.004390814

 GradGradGradGradGradGradGradGradGradGradGradGradGradGradGradGradGradGrad
 Berny optimization.
 Using GEDIIS/GDIIS optimizer.
 Internal  Forces:  Max     0.019420830 RMS     0.004424406
 Search for a local minimum.
 Step number   2 out of a maximum of  125
 All quantities printed in internal units (Hartrees-Bohrs-Radians)
 Mixed Optimization -- RFO/linear search
 Update second derivatives using D2CorX and points    1    2
 DE= -9.96D-03 DEPred=-2.56D-02 R= 3.90D-01
 Trust test= 3.90D-01 RLast= 4.03D-01 DXMaxT set to 3.00D-01
 ITU=  0  0
 Use linear search instead of GDIIS.
     Eigenvalues ---    0.00236   0.00293   0.00383   0.00401   0.00495
     Eigenvalues ---    0.00563   0.01329   0.01374   0.01381   0.01399
     Eigenvalues ---    0.01513   0.03748   0.03952   0.04579   0.04851
     Eigenvalues ---    0.04911   0.05118   0.05471   0.05873   0.06536
     Eigenvalues ---    0.06872   0.07485   0.07851   0.09148   0.10940
     Eigenvalues ---    0.11192   0.13532   0.13862   0.15936   0.16000
     Eigenvalues ---    0.16000   0.16000   0.16003   0.16230   0.17444
     Eigenvalues ---    0.19069   0.19370   0.19924   0.21793   0.22090
     Eigenvalues ---    0.22306   0.24722   0.28308   0.28516   0.29366
     Eigenvalues ---    0.29511   0.30686   0.33935   0.34150   0.34163
     Eigenvalues ---    0.34211   0.34254   0.34395   0.34522   0.41022
     Eigenvalues ---    0.41361   0.41686   0.42015   0.42797   0.45748
     Eigenvalues ---    0.51960   0.52842   0.52881   0.52899   0.53020
     Eigenvalues ---    0.87516
 RFO step:  Lambda=-8.27353464D-03 EMin= 2.35907213D-03
 Quartic linear search produced a step of -0.29799.
 Iteration  1 RMS(Cart)=  0.18013787 RMS(Int)=  0.00850875
 Iteration  2 RMS(Cart)=  0.01596567 RMS(Int)=  0.00075201
 Iteration  3 RMS(Cart)=  0.00006738 RMS(Int)=  0.00075100
 Iteration  4 RMS(Cart)=  0.00000004 RMS(Int)=  0.00075100
 Variable       Old X    -DE/DX   Delta X   Delta X   Delta X     New X
                                 (Linear)    (Quad)   (Total)
    R1        2.68167  -0.00329  -0.00313   0.00132  -0.00181   2.67986
    R2        2.05822   0.00650   0.00215   0.00860   0.01075   2.06897
    R3        2.07714   0.00154  -0.00392   0.01112   0.00720   2.08434
    R4        2.87289  -0.00008  -0.00203   0.00395   0.00192   2.87480
    R5        1.82125  -0.00248   0.00491  -0.01374  -0.00882   1.81242
    R6        2.29037  -0.01298   0.01123  -0.03469  -0.02346   2.26691
    R7        2.94006  -0.00453  -0.01587   0.02150   0.00563   2.94569
    R8        2.93812  -0.01063  -0.01045  -0.00430  -0.01475   2.92337
    R9        2.07184   0.00038  -0.00063   0.00205   0.00142   2.07327
   R10        2.70207  -0.00024  -0.00431   0.00862   0.00432   2.70639
   R11        2.91437   0.00348  -0.00117   0.01073   0.00956   2.92393
   R12        2.07168   0.00027   0.00079  -0.00107  -0.00028   2.07140
   R13        2.72024   0.00369  -0.00839   0.02368   0.01529   2.73553
   R14        2.88650   0.00222   0.00084   0.00346   0.00430   2.89080
   R15        2.07494   0.00017  -0.00129   0.00300   0.00170   2.07664
   R16        2.68726  -0.00184   0.00299  -0.00933  -0.00634   2.68092
   R17        2.07184  -0.00088  -0.00074  -0.00026  -0.00100   2.07084
   R18        2.07564   0.00112  -0.00281   0.00802   0.00521   2.08086
   R19        2.70121  -0.00102  -0.00304   0.00467   0.00163   2.70284
   R20        1.82078  -0.00279   0.00498  -0.01428  -0.00930   1.81147
   R21        1.81722  -0.00390   0.00626  -0.01847  -0.01222   1.80501
   R22        1.81688  -0.00190   0.00590  -0.01508  -0.00917   1.80770
   R23        1.81854  -0.00410   0.00568  -0.01751  -0.01183   1.80672
    A1        1.92412   0.00389  -0.00869   0.04056   0.03189   1.95601
    A2        1.92352   0.00321  -0.00883   0.03749   0.02867   1.95219
    A3        1.90174   0.00022   0.00752  -0.00956  -0.00200   1.89974
    A4        1.92154  -0.00270   0.00150  -0.02751  -0.02657   1.89497
    A5        1.89715  -0.00278   0.00396  -0.02249  -0.01874   1.87842
    A6        1.89520  -0.00199   0.00470  -0.02013  -0.01563   1.87958
    A7        1.87397  -0.00125   0.00066  -0.00644  -0.00578   1.86820
    A8        2.07148   0.01554   0.01386   0.01701   0.02723   2.09871
    A9        2.16703  -0.01901  -0.03695   0.02255  -0.01782   2.14922
   A10        2.04390   0.00350   0.02324  -0.03450  -0.01451   2.02939
   A11        2.13650  -0.01942  -0.03602  -0.01191  -0.04881   2.08769
   A12        1.84093   0.00267   0.00853  -0.02700  -0.02025   1.82068
   A13        1.80058   0.00868   0.02583  -0.01885   0.00793   1.80851
   A14        1.86917   0.00411   0.01779  -0.02775  -0.01225   1.85692
   A15        1.90634   0.00462  -0.00499   0.02853   0.02301   1.92934
   A16        1.90074   0.00064  -0.00997   0.06944   0.05977   1.96051
   A17        2.01197   0.00231   0.00107   0.01032   0.01127   2.02324
   A18        1.93209  -0.00064   0.00633  -0.02554  -0.01904   1.91306
   A19        1.89942  -0.00930  -0.01888  -0.00975  -0.02848   1.87094
   A20        1.87519  -0.00028   0.00066   0.02252   0.02306   1.89825
   A21        1.83064   0.00669   0.02604  -0.01767   0.00825   1.83889
   A22        1.91045   0.00171  -0.01586   0.02227   0.00606   1.91652
   A23        1.92853  -0.00039   0.00702  -0.01157  -0.00456   1.92397
   A24        1.90831  -0.00284   0.00722  -0.03116  -0.02400   1.88432
   A25        1.94947   0.00245  -0.00915   0.02621   0.01705   1.96652
   A26        1.81788   0.00350  -0.01288   0.04519   0.03237   1.85025
   A27        1.88575  -0.00129   0.00179  -0.00467  -0.00294   1.88281
   A28        1.96944  -0.00137   0.00617  -0.02292  -0.01679   1.95265
   A29        1.91543  -0.00040   0.00717  -0.01480  -0.00762   1.90781
   A30        1.92905  -0.00251   0.00702  -0.02663  -0.01963   1.90942
   A31        1.86752  -0.00138   0.00943  -0.02322  -0.01381   1.85372
   A32        1.90947   0.00036   0.00046   0.00137   0.00189   1.91136
   A33        1.91768   0.00143  -0.01120   0.02828   0.01715   1.93483
   A34        1.92439   0.00250  -0.01352   0.03478   0.02122   1.94561
   A35        1.87395   0.00122  -0.00175   0.00828   0.00652   1.88047
   A36        1.90195   0.00045  -0.00627   0.01319   0.00692   1.90887
   A37        1.90133   0.00074  -0.00509   0.01231   0.00722   1.90855
   A38        1.89359   0.00126  -0.00306   0.01081   0.00775   1.90134
    D1        1.06100   0.00072  -0.00411   0.00814   0.00407   1.06507
    D2       -1.06370  -0.00059   0.00492  -0.00896  -0.00408  -1.06779
    D3       -3.14157  -0.00021  -0.00001  -0.00092  -0.00093   3.14068
    D4       -0.03475  -0.00051   0.00155  -0.02431  -0.02369  -0.05844
    D5        3.06328   0.00048   0.02226   0.11723   0.14041  -3.07950
    D6        2.06259   0.00267  -0.00211   0.00581   0.00254   2.06512
    D7       -1.12257   0.00367   0.01860   0.14734   0.16664  -0.95593
    D8       -2.13021  -0.00335   0.00494  -0.05213  -0.04788  -2.17809
    D9        0.96782  -0.00236   0.02566   0.08941   0.11622   1.08404
   D10        0.03846   0.00211  -0.01921  -0.02948  -0.04753  -0.00907
   D11        2.17629  -0.00391  -0.01355  -0.10193  -0.11376   2.06254
   D12       -2.11361   0.00137  -0.00945  -0.04317  -0.05229  -2.16590
[...]
 235096,-0.00065531,0.00073768,-0.00055227,0.00014146,-0.00018785,-0.00
 037490,-0.00000881,0.00004996,-0.00007122,0.00001835,0.00019816,0.0000
 6216,0.00033896,-0.00011182,0.00004391,-0.01064482,-0.00794635,-0.0028
 8420,0.00138746,0.00193036,-0.00078091,-0.19593116,-0.10550587,-0.0365
 4737,-0.02297883,-0.01500123,-0.00108166,0.00066227,-0.00036093,-0.001
 91249,0.00007707,0.00018046,-0.00002302,-0.00002225,0.00003968,0.00004
 217,0.00021778,0.00002917,-0.00017626,0.00008285,0.00008979,0.00011215
 ,-0.00001742,-0.00003241,-0.00001253,0.20945814,-0.00086635,-0.0001314
 3,0.00044112,-0.00002988,0.00017232,0.00012121,-0.00007075,-0.00003671
 ,0.00005110,0.00037510,-0.00015494,0.00043712,-0.00000973,-0.00004262,
 0.00021144,0.00312607,0.00482446,-0.00083765,0.00024220,-0.00038545,0.
 00005731,-0.10401573,-0.11406185,-0.02040525,0.00108151,0.00138562,-0.
 00105204,-0.00019607,-0.00076479,-0.00021999,0.00030850,0.00016289,0.0
 0006282,-0.00002219,0.00002667,0.00004903,0.00005878,-0.00002920,-0.00
 012696,-0.00008308,0.00006913,0.00011443,-0.00000512,-0.00000646,0.000
 00456,0.11518799,0.14679065,0.00243347,0.00234600,-0.00108400,0.000253
 74,-0.00014913,-0.00084208,0.00012270,0.00011662,-0.00015094,-0.000254
 83,0.00048260,0.00074929,0.00022010,-0.00075782,-0.00080482,-0.0262818
 3,-0.01713676,-0.00578537,0.00206808,0.00345392,-0.00097329,-0.0425185
 0,-0.02800554,-0.05803626,0.02333554,0.01272736,0.00195445,0.00120674,
 0.00126092,0.00217225,0.00020641,-0.00007491,0.00000607,-0.00000903,-0
 .00002234,-0.00000535,-0.00024642,-0.00008057,-0.00000894,-0.00014059,
 -0.00004574,-0.00002463,0.00000335,0.00001118,0.00001031,0.03746675,0.
 02795872,0.06078538,-0.00183182,-0.00311376,-0.00039157,0.00058872,0.0
 0073907,-0.00018855,-0.00026995,-0.00015788,0.00017029,-0.00009680,0.0
 0132925,-0.00153559,0.00089050,0.00042506,-0.00024017,-0.00347026,0.01
 813695,0.00055913,0.00007643,-0.00038125,-0.00377700,-0.07240455,0.038
 49038,0.01215187,-0.00435679,0.02739920,-0.00354838,-0.00082117,0.0008
 7996,-0.00197590,0.00001254,0.00002130,-0.00040545,0.00008475,-0.00009
 021,-0.00022272,0.00010395,0.00000126,-0.00008787,0.00016429,-0.000172
 51,0.00063358,-0.00001212,-0.00000755,-0.00006918,0.01637926,-0.014427
 12,0.00182012,0.07265419,-0.00103453,0.00135923,0.00075794,0.00050221,
 0.00031919,-0.00007838,-0.00016455,-0.00010717,-0.00005429,0.00041864,
 0.00080013,0.00118503,0.00016212,-0.00004097,0.00074829,0.00932933,-0.
 02656833,-0.00294914,0.00312623,-0.00217634,0.00768421,0.04482963,-0.2
 1086466,-0.02534269,0.00493343,-0.02251676,0.00164158,0.00101776,-0.00
 571253,0.00295551,-0.00012030,0.00010836,0.00030812,-0.00025971,0.0002
 7322,0.00049594,0.00005311,-0.00002550,-0.00008047,-0.00032471,0.00078
 605,-0.00056699,-0.00008578,0.00003359,-0.00002693,0.00871510,-0.04025
 210,-0.00154438,-0.08974221,0.37878985,0.00015563,-0.00342740,-0.00344
 945,-0.00131310,0.00305335,-0.00133495,0.00011194,-0.00009101,0.000918
 39,0.00054795,0.00236766,-0.00277863,-0.00168650,0.00020589,-0.0009381
 9,-0.00895904,0.03885528,0.00754646,-0.00771349,0.00342505,-0.00856871
 ,0.00065210,0.01338786,-0.09651379,0.00216198,-0.02270947,0.00483914,-
 0.00381682,0.00724932,0.00068057,0.00028967,-0.00077096,0.00040358,0.0
 0020641,-0.00017278,-0.00031051,0.00000384,0.00010155,0.00006434,0.000
 31891,-0.00060416,-0.00042232,0.00010007,-0.00020634,0.00025134,0.0037
 6242,-0.00560365,0.00499307,0.01146376,-0.13301504,0.55118746,-0.00069
 735,-0.00052301,-0.00000003,0.00019984,0.00012900,-0.00001898,0.000042
 21,0.00000731,0.00000762,0.00010479,0.00029180,-0.00018031,0.00024365,
 -0.00008585,-0.00008971,-0.00121494,0.00380539,0.00136073,-0.00104302,
 0.00123533,-0.00146676,-0.00286039,0.00663462,-0.01409657,0.00082541,0
 .00202130,-0.00107264,0.00005815,0.00320028,0.00166795,-0.00027227,-0.
 00000080,0.00008040,0.00006668,-0.00007995,-0.00008048,-0.00013539,0.0
 0003923,0.00008648,0.00012224,-0.00026373,-0.00065404,0.00004097,-0.00
 006015,0.00008600,0.00049868,-0.00122645,0.00070507,-0.01036369,0.0148
 6416,-0.00821684,0.01919385,0.00001165,-0.00020931,-0.00011461,-0.0003
 1004,0.00050805,-0.00077454,0.00001467,0.00006387,0.00014190,0.0003673
 7,0.00039438,0.00030480,-0.00028452,-0.00017313,0.00017686,0.00062458,
 -0.00591877,-0.00328638,0.00120189,-0.00011905,0.00171283,0.00497663,-
 0.02282312,0.04053627,0.00249460,0.00101622,-0.00080625,0.00255819,-0.
 00084652,-0.00503411,0.00017968,-0.00067419,-0.00017922,0.00009179,-0.
 00002360,-0.00013840,-0.00011028,0.00000406,0.00010157,-0.00008193,-0.
 00008558,0.00053039,0.00001577,0.00007842,-0.00000078,-0.00010691,-0.0
 0031018,0.00038224,0.01805045,-0.08537206,0.10562370,-0.02743667,0.119
 37483,-0.00036443,0.00008223,-0.00087862,0.00030695,-0.00018857,0.0010
 3932,-0.00002783,-0.00001063,-0.00012527,-0.00005584,0.00003363,-0.000
 42025,0.00006477,-0.00002866,-0.00017605,-0.00064064,-0.00131079,-0.00
 134084,0.00224778,-0.00186459,0.00131586,-0.00106418,0.00360213,0.0053
 0661,0.00014651,-0.00257264,0.00512419,0.00336715,-0.01219399,0.002305
 72,-0.00010275,0.00147939,-0.00016360,-0.00052949,0.00040583,0.0008543
 3,-0.00001085,-0.00020266,-0.00005576,-0.00047511,0.00086384,0.0004300
 3,-0.00011298,0.00023970,-0.00029085,-0.00007492,-0.00281238,-0.000211
 47,-0.02398704,0.14981464,-0.43128968,0.02342705,-0.14363055,0.4246172
 5,-0.00016157,-0.00021541,0.00022181,0.00009138,0.00012290,0.00012576,
 -0.00004294,-0.00003725,0.00003462,0.00000771,0.00013756,0.00014146,0.
 00007417,0.00002034,0.00001187,-0.00110382,0.00108835,-0.00232667,0.00
 105861,-0.00100870,0.00068062,-0.01983424,-0.01429839,-0.00027769,-0.2
 0770623,-0.10395049,-0.03511495,-0.01137607,-0.00894944,-0.00351164,0.
 00016309,0.00022996,0.00103755,0.00005166,0.00018119,0.00008184,0.0008
 1655,0.00001180,-0.00052357,0.00021895,0.00023175,0.00016833,0.0000201
 9,-0.00001180,-0.00006630,-0.00229953,0.00063970,0.00324815,0.00258278
 ,0.00165478,-0.00089553,-0.00093678,-0.00007061,-0.00015491,0.22060942
 ,-0.00005882,0.00002609,0.00009005,0.00006231,0.00004278,0.00007303,-0
 .00002491,-0.00000926,0.00000963,-0.00005301,0.00004256,0.00003969,0.0
 0001133,0.00002114,-0.00000619,-0.00021053,-0.00012636,0.00002034,0.00
 009937,0.00057949,0.00088889,0.00290155,0.00324737,-0.00035148,-0.1047
 0464,-0.11384239,-0.02164498,0.00385594,0.00340524,0.00126885,-0.00033
 464,-0.00011280,-0.00020181,-0.00003400,0.00010486,0.00029828,0.000291
 09,0.00018381,-0.00032301,0.00026493,0.00016826,0.00013031,-0.00009354
 ,-0.00008543,-0.00008539,0.00121113,-0.00037739,-0.00075803,-0.0010094
 9,0.00221646,0.00045931,0.00002347,-0.00013959,0.00027737,0.11564397,0
 .14235159,0.00008292,0.00014240,0.00004891,-0.00006075,-0.00004950,-0.
 00007795,0.00001782,0.00001713,-0.00001272,-0.00003501,-0.00013071,-0.
 00006939,-0.00008477,0.00002213,0.00003294,0.00212930,-0.00016193,0.00
 219513,-0.00114816,0.00047351,-0.00000651,0.02160520,0.01224111,0.0011
 4836,-0.03372051,-0.02163093,-0.06112088,-0.02684400,-0.01711453,-0.00
 825573,-0.00216407,-0.00095013,0.00138820,0.00004534,0.00001901,-0.000
 05937,0.00082177,0.00033637,-0.00033873,0.00064520,0.00043565,0.000052
 30,0.00009692,-0.00000187,-0.00007906,0.00346634,-0.00024598,-0.003042
 88,-0.00227498,-0.00010873,0.00055841,-0.00001726,-0.00013521,-0.00005
 566,0.03533174,0.02687926,0.06646128,-0.00039864,-0.00038430,-0.000006
 58,0.00029776,-0.00006708,0.00060591,-0.00007172,-0.00003268,-0.000043
 50,-0.00010866,-0.00012686,-0.00022621,0.00015932,0.00006806,-0.000110
 81,-0.00192722,0.00159196,-0.00424137,0.00658506,-0.00151376,0.0025837
 7,-0.00566600,0.02931497,-0.00034617,-0.07444114,0.03334621,0.00209666
 ,-0.00387340,0.01818161,-0.00136433,-0.00032378,0.00021644,-0.00013459
 ,-0.00016636,-0.00033385,-0.00021726,0.00031189,0.00047739,-0.00012327
 ,0.00070794,-0.00048824,0.00010169,-0.00004826,0.00000881,-0.00010916,
 0.00333246,-0.00017699,-0.00263926,-0.00441441,0.00618336,0.00655333,0
 .00003619,-0.00150084,0.00133687,0.01592710,-0.01775865,0.00094458,0.0
 8560838,-0.00175476,-0.00052998,0.00027359,-0.00012926,0.00028469,-0.0
 0091427,-0.00007984,0.00002785,0.00006171,0.00013555,0.00019438,0.0001
 4667,-0.00020144,0.00029394,0.00051531,0.00549949,-0.00741403,0.006742
 32,-0.00372038,0.01052244,0.00031902,0.00903827,-0.02558366,-0.0054185
 6,0.03350631,-0.21241797,-0.02431533,0.00759380,-0.02724014,0.00439832
 ,0.00012292,-0.00060515,-0.00049507,-0.00000558,-0.00002369,0.00096113
 ,-0.00005851,-0.00016258,-0.00018790,-0.00007805,0.00064181,0.00060235
 ,-0.00010560,-0.00011342,-0.00013144,0.00078440,0.00225525,0.00064517,
 0.00605930,-0.00055543,-0.00525842,-0.00173287,0.00119355,-0.00043113,
 0.00732587,-0.03921663,-0.00137597,-0.09303723,0.36907255,0.00136345,-
 0.00240771,0.00107366,-0.00020295,0.00038166,-0.00026060,0.00016474,-0
 .00013016,0.00029691,0.00010979,-0.00015585,-0.00055325,0.00013317,-0.
 00024563,-0.00046527,-0.00946880,0.01175461,-0.00307475,0.00858256,-0.
 01185404,-0.02082176,0.00325765,-0.02282164,0.00719541,-0.00787430,0.0
 1232676,-0.09814438,-0.00950751,0.03688636,0.00567383,0.00225097,-0.00
 216895,-0.00050988,-0.00044329,0.00267010,-0.00121688,0.00032655,0.000
 34275,0.00006614,-0.00116216,0.00157353,-0.00063685,-0.00003224,-0.000
 20059,0.00048909,-0.00099200,-0.00004236,0.00105549,0.00592347,-0.0052
 7510,-0.00226275,0.00042427,0.00065055,-0.00360124,0.00302016,-0.00517
 188,0.00429874,0.07093670,-0.10282163,0.54808805,0.00125757,0.00031551
 ,-0.00012987,-0.00026995,-0.00004603,-0.00047564,0.00009926,-0.0000106
 0,0.00005781,-0.00006264,0.00003120,0.00009331,-0.00000960,-0.00017600
 ,-0.00024227,-0.00082755,0.00404197,0.00379782,-0.00519922,-0.00269589
 ,-0.00370779,-0.00002539,0.00145997,-0.00166397,-0.00404174,0.00544234
 ,-0.01138652,-0.00091311,0.00293047,0.00079505,0.00020711,0.00035654,0
 .00040690,0.00005572,-0.00025274,-0.00007868,-0.00005575,0.00000678,-0
 .00009322,-0.00005908,-0.00025909,0.00008810,0.00005032,-0.00000183,0.
 00000444,-0.00098306,0.00010815,-0.00003954,0.00032373,-0.00180339,0.0
 0023277,0.00021671,0.00005340,-0.00070862,0.00063114,-0.00089145,0.000
 80768,-0.02319972,0.02776432,-0.06181151,0.03288231,0.00096823,0.00085
 235,-0.00027765,0.00000481,-0.00011100,0.00052758,-0.00001038,0.000053
 96,-0.00007383,-0.00006911,0.00007128,0.00027134,-0.00000059,-0.000147
 19,-0.00009454,0.00361190,-0.00414653,-0.00412057,-0.00289504,-0.00307
 445,0.00499488,0.00158971,-0.00009551,-0.00056555,0.01065162,-0.020571
 69,0.04266378,0.00055174,-0.00618090,-0.00284408,0.00003726,-0.0003931
 6,-0.00033944,-0.00021726,0.00027230,0.00054805,-0.00002205,0.00011111
 ,0.00006808,-0.00014785,0.00036032,-0.00048273,-0.00003165,0.00001536,
 0.00006252,-0.00016271,0.00000311,-0.00035416,-0.00110749,0.00096146,0
 .00025292,-0.00001300,-0.00008770,0.00054370,-0.00035267,0.00010254,0.
 00038343,0.02356963,-0.07123208,0.07794059,-0.03729773,0.10404485,-0.0
 0204460,0.00296053,-0.00077780,0.00021764,-0.00030614,0.00023154,-0.00
 015817,0.00013553,-0.00029216,-0.00002122,0.00036941,0.00084983,-0.000
 27789,0.00034390,0.00083289,0.01114101,-0.01547039,0.00640488,-0.00882
 703,0.01204238,-0.00225705,-0.00015430,-0.00230081,0.00056614,-0.00230
 651,0.00618316,0.00434638,0.00040131,-0.00106917,-0.00085869,-0.000102
 13,0.00021386,-0.00081743,-0.00002070,0.00006374,-0.00035491,0.0000258
 3,0.00005171,-0.00003478,0.00022832,-0.00026272,0.00064789,-0.00000248
 ,0.00004685,-0.00011455,-0.00052851,0.00052555,-0.00026865,0.00123550,
 0.00021476,-0.00344067,-0.00079233,0.00046841,0.00084082,-0.00002101,-
 0.00278970,-0.00029535,-0.07389448,0.12181956,-0.42907959,0.07474967,-
 0.12094138,0.42275727,-0.00008217,-0.00010710,0.00005083,0.00001870,0.
 00002973,0.00000248,-0.00001522,-0.00001187,0.00000743,0.00000045,0.00
 001073,-0.00001041,0.00000401,0.00001738,0.00001331,0.00017644,0.00025
 952,0.00009603,0.00000615,-0.00003883,0.00010438,0.00057854,0.00032698
 ,0.00114532,-0.01082313,-0.00812143,-0.00275423,-0.22048015,-0.1058723
 5,-0.03182111,-0.02372134,-0.01216129,-0.00369923,0.00031967,0.0002531
 9,-0.00001393,-0.00211526,0.00093037,0.00354834,0.00251208,0.00043493,
 -0.00051599,0.00036532,0.00020191,-0.00027291,0.00079033,0.00012507,-0
 .00063061,0.00019981,-0.00002361,-0.00008874,-0.00014030,-0.00004823,-
 0.00001441,-0.00007970,0.00085262,-0.00181154,0.00142401,0.00083494,0.
 00077454,0.00010746,0.00017526,-0.00000638,0.23600806,-0.00004031,-0.0
 0005347,0.00003811,0.00000087,0.00002967,-0.00001305,-0.00000978,-0.00
 000616,0.00000849,0.00002226,0.00000564,0.00000459,-0.00000575,-0.0000
 0103,0.00002055,0.00024880,0.00010867,-0.00012531,-0.00009505,-0.00003
 666,0.00004042,0.00009404,-0.00040400,-0.00015353,0.00336531,0.0030171
 3,0.00091879,-0.10597194,-0.10992926,-0.01942473,0.00538951,0.00522369
 ,-0.00006590,-0.00011708,0.00076827,0.00079425,0.00143983,0.00073615,-
 0.00159010,-0.00045308,0.00012678,0.00032174,0.00017806,0.00001561,0.0
 0016501,0.00014318,0.00024911,-0.00034694,0.00025891,0.00071179,-0.000
 73001,-0.00088891,-0.00052419,0.00151670,0.00075630,-0.00037232,0.0011
 2158,0.00016801,0.00148600,-0.00008855,-0.00010439,0.00018109,0.000006
 48,0.11457267,0.13885473,-0.00005147,-0.00016264,0.00011690,0.00002014
 ,0.00004201,0.00004090,-0.00001027,-0.00001287,0.00001629,0.00000480,0
 .00001508,-0.00001378,0.00000995,0.00001969,-0.00000794,-0.00031935,0.
 00067242,0.00007738,0.00030301,-0.00014225,-0.00000250,-0.00148861,-0.
 00132551,0.00211082,-0.02768350,-0.01602055,-0.00860196,-0.03210866,-0
 .02072997,-0.05986608,0.02319544,0.01129287,0.00270404,-0.00079881,-0.
 00005160,0.00085964,0.00296954,-0.00036682,-0.00346395,-0.00133955,-0.
 00025801,0.00216699,-0.00020705,-0.00028079,0.00042116,0.00088159,0.00
 041853,-0.00025865,0.00057750,0.00011203,-0.00014244,-0.00033852,-0.00
 015253,-0.00014564,-0.00214754,0.00135384,-0.00480983,0.00208665,-0.00
 049612,0.00169533,0.00025203,-0.00001994,-0.00004668,0.03351455,0.0237
 3361,0.06278036,-0.00015162,-0.00005995,-0.00016931,0.00013926,-0.0001
 0139,0.00016065,-0.00004360,-0.00001252,-0.00003148,-0.00008438,-0.000
 06713,-0.00007536,0.00008622,0.00004654,-0.00008665,-0.00041210,0.0003
 6559,-0.00031827,0.00073098,-0.00074340,-0.00016950,-0.00124019,0.0024
 4682,0.00061521,-0.00323632,0.01457858,0.00054155,-0.07256611,0.024006
 01,0.00391338,-0.00782538,0.03618794,0.00124953,-0.00277707,0.00169162
 ,0.00626298,0.00332298,-0.00015115,-0.00248893,0.00235972,0.00103356,0
 .00010247,0.00035596,-0.00014812,-0.00079388,0.00017753,-0.00002169,-0
 .00033083,0.00403161,-0.00187097,0.00328775,-0.00484529,0.00052182,0.0
 0017867,0.00120754,0.00007504,0.00189471,0.00046146,0.00158606,-0.0045
 5686,-0.00020428,0.00078797,0.00101232,0.01469172,-0.01825850,0.001888
 97,0.08515307,0.00004291,0.00018333,0.00014547,0.00000805,0.00013409,0
 .00021148,-0.00001276,-0.00003424,0.00000121,0.00007751,0.00004246,0.0
 0015926,-0.00004727,-0.00004541,0.00007960,0.00021846,-0.00060050,-0.0
 0072347,-0.00071815,0.00084974,0.00092646,0.00121483,-0.00325544,-0.00
 115815,0.00494201,-0.02019386,0.00048411,0.02393373,-0.19463188,-0.022
 12601,0.01393827,-0.03451360,-0.00269053,0.00280368,0.00110329,-0.0040
 9798,0.00070287,0.00214547,0.00019722,-0.00085928,0.00376093,0.0005434
 3,-0.00041231,-0.00008260,0.00109651,0.00015609,0.00048609,-0.00017371
 ,-0.00220043,0.00664536,0.00034749,0.00230666,-0.00537846,0.00301860,0
 .00071357,0.00155125,-0.00007370,0.00140637,0.00010575,0.00653632,0.00
 064010,-0.00047375,-0.00202917,0.00791366,-0.03989193,0.00198334,-0.08
 199229,0.34066767,0.00033345,-0.00045531,0.00059306,-0.00028300,0.0003
 4994,-0.00079970,0.00003199,0.00000646,0.00016628,0.00017479,0.0001706
 1,0.00013907,-0.00018276,-0.00007186,0.00009722,-0.00015290,0.00039126
 ,0.00153578,-0.00048299,0.00042559,-0.00114220,0.00262818,-0.00639474,
 0.00148447,-0.00636316,0.03568084,0.00557732,-0.01097025,0.02232702,-0
 .09896550,0.00600073,-0.02598153,-0.00285652,0.00389740,-0.00073816,-0
 .00399103,-0.00096252,0.00047558,0.00138190,0.00399990,-0.00597024,-0.
 00316763,0.00050820,-0.00261611,0.00126231,0.00017071,0.00083752,-0.00
 018381,0.00353415,0.00362068,-0.02039376,0.00003385,0.00297613,-0.0011
 6181,0.00090468,-0.00045458,0.00186312,-0.00429776,0.00624811,-0.00953
 412,-0.00101680,0.00188812,0.00118495,0.00230337,-0.00431887,0.0042916
 1,0.05939839,-0.08758191,0.59532739,0.00003646,0.00002946,-0.00001610,
 -0.00002190,-0.00002745,0.00003123,0.00001844,0.00000270,-0.00000821,-
 0.00001054,-0.00002359,-0.00001210,0.00000293,0.00000048,-0.00000711,-
 0.00003510,-0.00006001,-0.00001859,0.00004227,-0.00004940,0.00001339,-
 0.00027680,0.00069048,0.00000796,-0.00091795,0.00291789,0.00084601,-0.
 00121307,0.00209059,-0.01134319,-0.00073542,0.00333715,-0.00316592,0.0
 0032104,-0.00060300,-0.00033931,-0.00067961,0.00018110,0.00031467,-0.0
 0079417,-0.00299577,-0.00063934,-0.00034274,-0.00037629,0.00042488,-0.
 00002141,-0.00010190,0.00000120,-0.00005100,-0.00036008,0.00284155,0.0
 0086003,-0.00121244,-0.00275174,0.00008057,-0.00011908,0.00027153,-0.0
 0021228,0.00065230,-0.00121641,0.00001976,0.00037941,0.00014611,0.0002
 5453,-0.00069297,0.00078915,-0.01933170,0.02522372,-0.05920766,0.02300
 766,0.00001606,-0.00000885,0.00007003,-0.00004720,0.00002332,-0.000169
 25,0.00000411,0.00001259,0.00001992,0.00001458,0.00002956,0.00003179,-
 0.00002613,0.00000730,0.00002232,0.00021101,-0.00008991,0.00031787,-0.
 00019186,0.00020670,-0.00010824,0.00007743,-0.00091928,-0.00029542,-0.
 00002818,-0.00608604,-0.00326914,0.01003995,-0.01612301,0.04360084,0.0
 0295118,-0.00104239,0.00285552,-0.00054042,0.00022233,0.00024385,-0.00
 031560,0.00002627,-0.00049991,-0.00155432,-0.00138042,0.00136832,-0.00
 102005,0.00212511,-0.00052434,-0.00003706,0.00012781,0.00006530,0.0006
 1882,0.00118717,-0.00274015,-0.00224715,0.00005208,0.00336882,0.000136
 74,0.00023874,-0.00009239,0.00088765,-0.00098346,0.00232083,0.00038840
 ,-0.00051577,-0.00027634,-0.00055424,-0.00029531,0.00037616,0.02009958
 ,-0.05857374,0.05918543,-0.02888329,0.08175920,0.00001015,0.00000671,-
 0.00007262,0.00002848,-0.00001606,0.00016564,-0.00000299,0.00000150,-0
 .00002039,-0.00000040,-0.00000815,-0.00001286,0.00000268,-0.00000787,-
 0.00000349,-0.00013600,0.00015609,-0.00027090,0.00005598,-0.00010669,0
 .00013615,0.00006263,-0.00028516,-0.00001378,0.00090843,0.00014670,0.0
 0035851,-0.00325115,0.00477310,-0.00006734,0.00269722,-0.00386366,0.00
 417525,-0.00042312,0.00032112,-0.00153188,-0.00055339,0.00029848,-0.00
 064543,-0.00106814,0.00072908,-0.00111956,-0.00035458,0.00135005,-0.00
 063184,0.00000407,0.00005580,-0.00004515,0.00063501,-0.00049661,0.0004
 0309,-0.00085495,0.00064692,-0.00191740,0.00003121,-0.00000180,0.00017
 668,0.00050859,-0.00088741,0.00022867,0.00006886,-0.00003110,-0.000024
 27,0.00007892,-0.00183334,0.00007802,-0.07148551,0.10492412,-0.4727083
 9,0.07303799,-0.10587183,0.47336326\\-0.00001720,0.00001648,-0.0000089
 7,0.00000396,0.00000236,0.00001063,0.00000011,-0.00000018,0.00000022,0
 .00000621,-0.00000384,0.00000007,0.00000647,0.00000261,0.00000370,0.00
 000457,-0.00002016,0.00000150,-0.00000054,0.00001068,0.00000037,0.0000
 0924,-0.00000275,-0.00001439,-0.00000150,-0.00000160,0.00000026,0.0000
 0416,-0.00001193,0.00000093,0.00000097,-0.00000265,0.00000904,-0.00000
 133,-0.00000159,0.00000023,-0.00000028,-0.00000240,-0.00000288,-0.0000
 0213,-0.00000282,-0.00000620,-0.00000059,-0.00000216,-0.00000025,-0.00
 000341,0.00000880,0.00000492,-0.00001028,0.00000174,-0.00000561,0.0000
 0741,0.00000256,0.00000222,0.00000104,0.00000336,-0.00000044,-0.000006
 21,0.00000026,0.00000167,-0.00000328,0.00000280,-0.00000331,-0.0000033
 9,0.00000179,-0.00000349,0.00000595,0.00000167,0.00000871,0.00000003,-
 0.00000303,0.00000109\\\@


 ABALONE: AN EXPRESSION OF DISBELIEF.
 Job cpu time:  0 days  0 hours 25 minutes 20.6 seconds.
 File lengths (MBytes):  RWF=    219 Int=      0 D2E=      0 Chk=      7 Scr=      1
 Normal termination of Gaussian 09 at Tue Jan 23 03:35:54 2018.
