 Entering Gaussian System, Link 0=g09
 Input=S-S-R-Fructuose.inp
 Output=S-S-R-Fructuose.log
 Initial command:
 /usr/local/g09/l1.exe /home/g09scr/Gau-20130.inp -scrdir=/home/g09scr/
 Entering Link 1 = /usr/local/g09/l1.exe PID=     20132.
  
 Copyright (c) 1988,1990,1992,1993,1995,1998,2003,2009,2010,
            Gaussian, Inc.  All Rights Reserved.
  
 This is part of the Gaussian(R) 09 program.  It is based on
 the Gaussian(R) 03 system (copyright 2003, Gaussian, Inc.),
 the Gaussian(R) 98 system (copyright 1998, Gaussian, Inc.),
 the Gaussian(R) 94 system (copyright 1995, Gaussian, Inc.),
 the Gaussian 92(TM) system (copyright 1992, Gaussian, Inc.),
 the Gaussian 90(TM) system (copyright 1990, Gaussian, Inc.),
 the Gaussian 88(TM) system (copyright 1988, Gaussian, Inc.),
 the Gaussian 86(TM) system (copyright 1986, Carnegie Mellon
 University), and the Gaussian 82(TM) system (copyright 1983,
 Carnegie Mellon University). Gaussian is a federally registered
 trademark of Gaussian, Inc.
  
 This software contains proprietary and confidential information,
 including trade secrets, belonging to Gaussian, Inc.
  
 This software is provided under written license and may be
 used, copied, transmitted, or stored only in accord with that
 written license.
  
 The following legend is applicable only to US Government
 contracts under FAR:
  
                    RESTRICTED RIGHTS LEGEND
  
 Use, reproduction and disclosure by the US Government is
 subject to restrictions as set forth in subparagraphs (a)
 and (c) of the Commercial Computer Software - Restricted
 Rights clause in FAR 52.227-19.
  
 Gaussian, Inc.
 340 Quinnipiac St., Bldg. 40, Wallingford CT 06492
  
  
 ---------------------------------------------------------------
 Warning -- This program may not be used in any manner that
 competes with the business of Gaussian, Inc. or will provide
 assistance to any competitor of Gaussian, Inc.  The licensee
 of this program is prohibited from giving any competitor of
 Gaussian, Inc. access to this program.  By using this program,
 the user acknowledges that Gaussian, Inc. is engaged in the
 business of creating and licensing software in the field of
 computational chemistry and represents and warrants to the
 licensee that it is not a competitor of Gaussian, Inc. and that
 it will not use this program in any manner prohibited above.
 ---------------------------------------------------------------
  

 Cite this work as:
 Gaussian 09, Revision B.01,
 M. J. Frisch, G. W. Trucks, H. B. Schlegel, G. E. Scuseria, 
 M. A. Robb, J. R. Cheeseman, G. Scalmani, V. Barone, B. Mennucci, 
 G. A. Petersson, H. Nakatsuji, M. Caricato, X. Li, H. P. Hratchian, 
 A. F. Izmaylov, J. Bloino, G. Zheng, J. L. Sonnenberg, M. Hada, 
 M. Ehara, K. Toyota, R. Fukuda, J. Hasegawa, M. Ishida, T. Nakajima, 
 Y. Honda, O. Kitao, H. Nakai, T. Vreven, J. A. Montgomery, Jr., 
 J. E. Peralta, F. Ogliaro, M. Bearpark, J. J. Heyd, E. Brothers, 
 K. N. Kudin, V. N. Staroverov, T. Keith, R. Kobayashi, J. Normand, 
 K. Raghavachari, A. Rendell, J. C. Burant, S. S. Iyengar, J. Tomasi, 
 M. Cossi, N. Rega, J. M. Millam, M. Klene, J. E. Knox, J. B. Cross, 
 V. Bakken, C. Adamo, J. Jaramillo, R. Gomperts, R. E. Stratmann, 
 O. Yazyev, A. J. Austin, R. Cammi, C. Pomelli, J. W. Ochterski, 
 R. L. Martin, K. Morokuma, V. G. Zakrzewski, G. A. Voth, 
 P. Salvador, J. J. Dannenberg, S. Dapprich, A. D. Daniels, 
 O. Farkas, J. B. Foresman, J. V. Ortiz, J. Cioslowski, 
 and D. J. Fox, Gaussian, Inc., Wallingford CT, 2010.
 
 ******************************************
 Gaussian 09:  EM64L-G09RevB.01 12-Aug-2010
                23-Jan-2018 
 ******************************************
 %nproc=4
 Will use up to    4 processors via shared memory.
 %mem=60gb
 ------------------------------
 #B3LYP/6-311G** fopt test freq
 ------------------------------
 1/14=-1,18=20,19=15,26=3,38=1/1,3;
 2/9=110,12=2,14=103,17=6,18=5,40=1/2;
 3/5=4,6=6,7=101,11=2,16=1,25=1,30=1,71=1,74=-5/1,2,3;
 4//1;
 5/5=2,38=5/2;
 6/7=2,8=2,9=2,10=2,28=1/1;
 7//1,2,3,16;
 1/14=-1,18=20,19=15/3(2);
 2/9=110/2;
 99//99;
 2/9=110/2;
 3/5=4,6=6,7=101,11=2,16=1,25=1,30=1,71=1,74=-5/1,2,3;
 4/5=5,16=3/1;
 5/5=2,38=5/2;
 7//1,2,3,16;
 1/14=-1,18=20,19=15/3(-5);
 2/9=110/2;
 6/7=2,8=2,9=2,10=2,19=2,28=1/1;
 99/9=1/99;
 --------------------------
 Sugars/S-S-R-Fructuose.xyz
 --------------------------
 Symbolic Z-matrix:
 Charge =  0 Multiplicity = 1
 C                     0.        0.        0. 
 O                     0.        0.        1.41352 
 H                     0.92749   0.        1.70592 
 H                     0.51803  -0.89725  -0.34815 
 H                     0.51786   0.89695  -0.34677 
 C                    -1.42147   0.       -0.52884 
 O                    -2.38889  -0.0311    0.23329 
 C                    -1.59838   0.00492  -2.04619 
 C                    -0.29803   0.04539  -2.86317 
 C                    -0.4755    0.02154  -4.39287 
 C                     0.86828   0.04202  -5.12195 
 H                     1.4567   -0.85196  -4.89019 
 H                     1.45026   0.93508  -4.87855 
 O                     0.62907   0.0516   -6.5257 
 H                     1.49772   0.05882  -6.96259 
 H                    -2.18688  -0.88181  -2.30501 
 O                    -2.38065   1.13973  -2.3969 
 H                    -3.22003   0.81821  -2.76877 
 H                     0.31509   0.92124  -2.6144 
 O                     0.44258  -1.09678  -2.44321 
 H                     1.27832  -0.78635  -2.05615 
 H                    -1.05584   0.88784  -4.72949 
 O                    -1.01692  -1.23465  -4.80051 
 H                    -1.82339  -1.05983  -5.31495 
 

 GradGradGradGradGradGradGradGradGradGradGradGradGradGradGradGradGradGrad
 Berny optimization.
 Initialization pass.
                           ----------------------------
                           !    Initial Parameters    !
                           ! (Angstroms and Degrees)  !
 --------------------------                            --------------------------
 ! Name  Definition              Value          Derivative Info.                !
 --------------------------------------------------------------------------------
 ! R1    R(1,2)                  1.4135         estimate D2E/DX2                !
 ! R2    R(1,4)                  1.093          estimate D2E/DX2                !
 ! R3    R(1,5)                  1.0922         estimate D2E/DX2                !
 ! R4    R(1,6)                  1.5167         estimate D2E/DX2                !
 ! R5    R(2,3)                  0.9725         estimate D2E/DX2                !
 ! R6    R(6,7)                  1.232          estimate D2E/DX2                !
 ! R7    R(6,8)                  1.5276         estimate D2E/DX2                !
 ! R8    R(8,9)                  1.5362         estimate D2E/DX2                !
 ! R9    R(8,16)                 1.0953         estimate D2E/DX2                !
 ! R10   R(8,17)                 1.4222         estimate D2E/DX2                !
 ! R11   R(9,10)                 1.5401         estimate D2E/DX2                !
 ! R12   R(9,19)                 1.0977         estimate D2E/DX2                !
 ! R13   R(9,20)                 1.4246         estimate D2E/DX2                !
 ! R14   R(10,11)                1.529          estimate D2E/DX2                !
 ! R15   R(10,22)                1.0957         estimate D2E/DX2                !
 ! R16   R(10,23)                1.4273         estimate D2E/DX2                !
 ! R17   R(11,12)                1.0951         estimate D2E/DX2                !
 ! R18   R(11,13)                1.0934         estimate D2E/DX2                !
 ! R19   R(11,14)                1.424          estimate D2E/DX2                !
 ! R20   R(14,15)                0.9724         estimate D2E/DX2                !
 ! R21   R(17,18)                0.9727         estimate D2E/DX2                !
 ! R22   R(20,21)                0.9719         estimate D2E/DX2                !
 ! R23   R(23,24)                0.9724         estimate D2E/DX2                !
 ! A1    A(2,1,4)              108.574          estimate D2E/DX2                !
 ! A2    A(2,1,5)              108.511          estimate D2E/DX2                !
 ! A3    A(2,1,6)              110.407          estimate D2E/DX2                !
 ! A4    A(4,1,5)              110.3838         estimate D2E/DX2                !
 ! A5    A(4,1,6)              109.4597         estimate D2E/DX2                !
 ! A6    A(5,1,6)              109.4917         estimate D2E/DX2                !
 ! A7    A(1,2,3)              107.498          estimate D2E/DX2                !
 ! A8    A(1,6,7)              121.351          estimate D2E/DX2                !
 ! A9    A(1,6,8)              117.057          estimate D2E/DX2                !
 ! A10   A(7,6,8)              121.5748         estimate D2E/DX2                !
 ! A11   A(6,8,9)              115.486          estimate D2E/DX2                !
 ! A12   A(6,8,16)             107.118          estimate D2E/DX2                !
 ! A13   A(6,8,17)             108.1312         estimate D2E/DX2                !
 ! A14   A(9,8,16)             110.516          estimate D2E/DX2                !
 ! A15   A(9,8,17)             108.265          estimate D2E/DX2                !
 ! A16   A(16,8,17)            106.9882         estimate D2E/DX2                !
 ! A17   A(8,9,10)             115.484          estimate D2E/DX2                !
 ! A18   A(8,9,19)             111.9187         estimate D2E/DX2                !
 ! A19   A(8,9,20)             105.1981         estimate D2E/DX2                !
 ! A20   A(10,9,19)            107.567          estimate D2E/DX2                !
 ! A21   A(10,9,20)            109.894          estimate D2E/DX2                !
 ! A22   A(19,9,20)            106.4113         estimate D2E/DX2                !
 ! A23   A(9,10,11)            111.847          estimate D2E/DX2                !
 ! A24   A(9,10,22)            110.727          estimate D2E/DX2                !
 ! A25   A(9,10,23)            109.938          estimate D2E/DX2                !
 ! A26   A(11,10,22)           107.9636         estimate D2E/DX2                !
 ! A27   A(11,10,23)           102.0626         estimate D2E/DX2                !
 ! A28   A(22,10,23)           114.0276         estimate D2E/DX2                !
 ! A29   A(10,11,12)           111.125          estimate D2E/DX2                !
 ! A30   A(10,11,13)           111.8759         estimate D2E/DX2                !
 ! A31   A(10,11,14)           108.815          estimate D2E/DX2                !
 ! A32   A(12,11,13)           109.4922         estimate D2E/DX2                !
 ! A33   A(12,11,14)           107.7211         estimate D2E/DX2                !
 ! A34   A(13,11,14)           107.6593         estimate D2E/DX2                !
 ! A35   A(11,14,15)           107.0319         estimate D2E/DX2                !
 ! A36   A(8,17,18)            107.768          estimate D2E/DX2                !
 ! A37   A(9,20,21)            107.96           estimate D2E/DX2                !
 ! A38   A(10,23,24)           107.906          estimate D2E/DX2                !
 ! D1    D(4,1,2,3)             60.0            estimate D2E/DX2                !
 ! D2    D(5,1,2,3)            -60.0            estimate D2E/DX2                !
 ! D3    D(6,1,2,3)            180.0            estimate D2E/DX2                !
 ! D4    D(2,1,6,7)             -1.694          estimate D2E/DX2                !
 ! D5    D(2,1,6,8)            179.793          estimate D2E/DX2                !
 ! D6    D(4,1,6,7)            117.7715         estimate D2E/DX2                !
 ! D7    D(4,1,6,8)            -60.7415         estimate D2E/DX2                !
 ! D8    D(5,1,6,7)           -121.102          estimate D2E/DX2                !
 ! D9    D(5,1,6,8)             60.385          estimate D2E/DX2                !
 ! D10   D(1,6,8,9)             -1.4906         estimate D2E/DX2                !
 ! D11   D(1,6,8,16)           122.0863         estimate D2E/DX2                !
 ! D12   D(1,6,8,17)          -122.9186         estimate D2E/DX2                !
 ! D13   D(7,6,8,9)            180.0            estimate D2E/DX2                !
 ! D14   D(7,6,8,16)           -56.4232         estimate D2E/DX2                !
 ! D15   D(7,6,8,17)            58.5719         estimate D2E/DX2                !
 ! D16   D(6,8,9,10)           178.812          estimate D2E/DX2                !
 ! D17   D(6,8,9,19)           -57.6707         estimate D2E/DX2                !
 ! D18   D(6,8,9,20)            57.4731         estimate D2E/DX2                !
 ! D19   D(16,8,9,10)           57.041          estimate D2E/DX2                !
 ! D20   D(16,8,9,19)         -179.4417         estimate D2E/DX2                !
 ! D21   D(16,8,9,20)          -64.298          estimate D2E/DX2                !
 ! D22   D(17,8,9,10)          -59.832          estimate D2E/DX2                !
 ! D23   D(17,8,9,19)           63.6853         estimate D2E/DX2                !
 ! D24   D(17,8,9,20)          178.829          estimate D2E/DX2                !
 ! D25   D(6,8,17,18)         -115.0804         estimate D2E/DX2                !
 ! D26   D(9,8,17,18)          119.126          estimate D2E/DX2                !
 ! D27   D(16,8,17,18)           0.0            estimate D2E/DX2                !
 ! D28   D(8,9,10,11)         -179.087          estimate D2E/DX2                !
 ! D29   D(8,9,10,22)           60.4499         estimate D2E/DX2                !
 ! D30   D(8,9,10,23)          -66.447          estimate D2E/DX2                !
 ! D31   D(19,9,10,11)          55.1349         estimate D2E/DX2                !
 ! D32   D(19,9,10,22)         -65.3281         estimate D2E/DX2                !
 ! D33   D(19,9,10,23)         167.775          estimate D2E/DX2                !
 ! D34   D(20,9,10,11)         -60.315          estimate D2E/DX2                !
 ! D35   D(20,9,10,22)         179.2219         estimate D2E/DX2                !
 ! D36   D(20,9,10,23)          52.325          estimate D2E/DX2                !
 ! D37   D(8,9,20,21)         -118.8985         estimate D2E/DX2                !
 ! D38   D(10,9,20,21)         116.1799         estimate D2E/DX2                !
 ! D39   D(19,9,20,21)           0.0            estimate D2E/DX2                !
 ! D40   D(9,10,11,12)          62.961          estimate D2E/DX2                !
 ! D41   D(9,10,11,13)         -59.764          estimate D2E/DX2                !
 ! D42   D(9,10,11,14)        -178.59           estimate D2E/DX2                !
 ! D43   D(22,10,11,12)       -174.9777         estimate D2E/DX2                !
 ! D44   D(22,10,11,13)         62.2974         estimate D2E/DX2                !
 ! D45   D(22,10,11,14)        -56.5287         estimate D2E/DX2                !
 ! D46   D(23,10,11,12)        -54.514          estimate D2E/DX2                !
 ! D47   D(23,10,11,13)       -177.2389         estimate D2E/DX2                !
 ! D48   D(23,10,11,14)         63.935          estimate D2E/DX2                !
 ! D49   D(9,10,23,24)         125.0235         estimate D2E/DX2                !
 ! D50   D(11,10,23,24)       -116.1399         estimate D2E/DX2                !
 ! D51   D(22,10,23,24)          0.0            estimate D2E/DX2                !
 ! D52   D(10,11,14,15)       -179.647          estimate D2E/DX2                !
 ! D53   D(12,11,14,15)        -59.077          estimate D2E/DX2                !
 ! D54   D(13,11,14,15)         58.9155         estimate D2E/DX2                !
 --------------------------------------------------------------------------------
 Trust Radius=3.00D-01 FncErr=1.00D-07 GrdErr=1.00D-06
 Number of steps in this run=    125 maximum allowed number of steps=    144.
 GradGradGradGradGradGradGradGradGradGradGradGradGradGradGradGradGradGrad

                          Input orientation:                          
 ---------------------------------------------------------------------
 Center     Atomic      Atomic             Coordinates (Angstroms)
 Number     Number       Type             X           Y           Z
 ---------------------------------------------------------------------
      1          6           0        0.000000    0.000000    0.000000
      2          8           0        0.000000    0.000000    1.413516
      3          1           0        0.927487    0.000000    1.705916
      4          1           0        0.518025   -0.897246   -0.348146
      5          1           0        0.517855    0.896952   -0.346765
      6          6           0       -1.421472    0.000000   -0.528838
      7          8           0       -2.388894   -0.031101    0.233292
      8          6           0       -1.598381    0.004915   -2.046186
      9          6           0       -0.298033    0.045392   -2.863171
     10          6           0       -0.475503    0.021535   -4.392866
     11          6           0        0.868280    0.042020   -5.121945
     12          1           0        1.456696   -0.851959   -4.890189
     13          1           0        1.450260    0.935079   -4.878545
     14          8           0        0.629072    0.051603   -6.525700
     15          1           0        1.497715    0.058819   -6.962591
     16          1           0       -2.186879   -0.881805   -2.305009
     17          8           0       -2.380652    1.139726   -2.396895
     18          1           0       -3.220032    0.818209   -2.768774
     19          1           0        0.315092    0.921242   -2.614396
     20          8           0        0.442584   -1.096782   -2.443213
     21          1           0        1.278324   -0.786348   -2.056148
     22          1           0       -1.055845    0.887837   -4.729486
     23          8           0       -1.016917   -1.234648   -4.800512
     24          1           0       -1.823387   -1.059831   -5.314954
 ---------------------------------------------------------------------
                    Distance matrix (angstroms):
                    1          2          3          4          5
     1  C    0.000000
     2  O    1.413516   0.000000
     3  H    1.941747   0.972486   0.000000
     4  H    1.092980   2.043735   2.278570   0.000000
     5  H    1.092219   2.042373   2.277240   1.794199   0.000000
     6  C    1.516658   2.406932   3.242180   2.144609   2.144449
     7  O    2.400460   2.664716   3.628770   3.088439   3.105952
     8  C    2.596483   3.811087   4.523086   2.859442   2.856959
     9  C    2.878998   4.287299   4.730805   2.807110   2.779051
    10  C    4.418579   5.825859   6.258114   4.265093   4.257235
    11  C    5.195190   6.593021   6.828247   4.877915   4.863749
    12  H    5.173176   6.525680   6.671919   4.638244   4.958106
    13  H    5.174730   6.524390   6.671041   4.975037   4.626863
    14  O    6.556154   7.964267   8.237185   6.250985   6.237485
    15  H    7.122098   8.509158   8.687441   6.754608   6.740308
    16  H    3.297436   4.403118   5.154064   3.338571   3.783422
    17  O    3.565331   4.635268   5.392200   4.092549   3.558555
    18  H    4.324833   5.341313   6.155829   4.772347   4.454675
    19  H    2.789809   4.143917   4.459687   2.912725   2.276808
    20  O    2.714425   4.034002   4.318950   2.105899   2.894086
    21  H    2.545624   3.780347   3.859346   1.872865   2.516705
    22  H    4.926571   6.295994   6.792368   4.985953   4.656700
    23  O    5.059979   6.416589   6.902077   4.721594   5.170600
    24  H    5.718104   7.051262   7.614668   5.493435   5.830379
                    6          7          8          9         10
     6  C    0.000000
     7  O    1.231956   0.000000
     8  C    1.527634   2.412929   0.000000
     9  C    2.591001   3.737062   1.536232   0.000000
    10  C    3.978195   5.006513   2.601545   1.540140   0.000000
    11  C    5.132384   6.268420   3.942853   2.542117   1.528963
    12  H    5.294437   6.458516   4.260995   2.827210   2.178007
    13  H    5.295391   6.465561   4.263997   2.812437   2.186095
    14  O    6.337961   7.402630   5.002976   3.778053   2.402076
    15  H    7.065288   8.178909   5.810314   4.475504   3.240134
    16  H    2.125608   2.684675   1.095259   2.176919   2.846749
    17  O    2.389276   2.879025   1.422231   2.398392   2.977221
    18  H    2.986904   3.228702   1.952776   3.023944   3.287066
    19  H    2.865989   4.040770   2.196337   1.097691   2.144171
    20  O    2.888333   4.039384   2.353063   1.424584   2.427893
    21  H    3.199987   4.388670   2.983560   1.956522   3.031309
    22  H    4.308988   5.220214   2.876455   2.183375   1.095714
    23  O    4.464887   5.354440   3.075862   2.430758   1.427340
    24  H    4.918504   5.671077   3.445164   3.091838   1.958670
                   11         12         13         14         15
    11  C    0.000000
    12  H    1.095054   0.000000
    13  H    1.093389   1.787088   0.000000
    14  O    1.424023   2.043595   2.041568   0.000000
    15  H    1.945366   2.264078   2.261268   0.972351   0.000000
    16  H    4.257062   4.467626   4.811750   5.158979   6.012826
    17  O    4.380230   4.990848   4.569065   5.223933   6.087337
    18  H    4.780604   5.400153   5.126053   5.433027   6.357823
    19  H    2.714194   3.102698   2.532818   4.019099   4.587937
    20  O    2.941716   2.660085   3.327869   4.245028   4.782624
    21  H    3.202099   2.840407   3.310407   4.593537   4.983535
    22  H    2.138150   3.060323   2.510978   2.600888   3.492091
    23  O    2.299384   2.504647   3.286452   2.709243   3.559637
    24  H    2.914858   3.313998   3.858352   2.952244   3.872442
                   16         17         18         19         20
    16  H    0.000000
    17  O    2.032874   0.000000
    18  H    2.042677   0.972741   0.000000
    19  H    3.099445   2.713315   3.539993   0.000000
    20  O    2.641854   3.602051   4.145834   2.029280   0.000000
    21  H    3.475439   4.148973   4.828835   2.038460   0.971931
    22  H    3.207641   2.694354   2.921121   2.520752   3.378024
    23  O    2.778641   3.643460   3.632616   3.346821   2.775970
    24  H    3.037036   3.696439   3.458422   3.973758   3.658263
                   21         22         23         24
    21  H    0.000000
    22  H    3.924026   0.000000
    23  O    3.605640   2.124030   0.000000
    24  H    4.507241   2.173776   0.972422   0.000000
 Stoichiometry    C6H12O6
 Framework group  C1[X(C6H12O6)]
 Deg. of freedom    66
 Full point group                 C1      NOp   1
 Largest Abelian subgroup         C1      NOp   1
 Largest concise Abelian subgroup C1      NOp   1
                         Standard orientation:                         
 ---------------------------------------------------------------------
 Center     Atomic      Atomic             Coordinates (Angstroms)
 Number     Number       Type             X           Y           Z
 ---------------------------------------------------------------------
      1          6           0        2.357819   -1.035429   -0.185190
      2          8           0        3.743662   -1.313644   -0.177189
      3          1           0        3.852156   -2.263865   -0.353372
      4          1           0        1.878221   -1.633179    0.594096
      5          1           0        1.957094   -1.297951   -1.166742
      6          6           0        2.112416    0.436769    0.084372
      7          8           0        3.044136    1.212054    0.304704
      8          6           0        0.658973    0.906607    0.104880
      9          6           0       -0.390082   -0.176557   -0.188801
     10          6           0       -1.856765    0.290874   -0.140017
     11          6           0       -2.828842   -0.855133   -0.421907
     12          1           0       -2.753274   -1.634160    0.343958
     13          1           0       -2.663444   -1.296259   -1.408593
     14          8           0       -4.158746   -0.346820   -0.393392
     15          1           0       -4.753649   -1.095514   -0.569502
     16          1           0        0.479979    1.358227    1.086507
     17          8           0        0.514423    1.940636   -0.860848
     18          1           0        0.297194    2.761609   -0.386463
     19          1           0       -0.226140   -0.651934   -1.164539
     20          8           0       -0.169954   -1.185502    0.792532
     21          1           0        0.062384   -2.008031    0.329808
     22          1           0       -2.037891    1.077597   -0.880861
     23          8           0       -2.206669    0.657417    1.194342
     24          1           0       -2.548557    1.567540    1.174493
 ---------------------------------------------------------------------
 Rotational constants (GHZ):      1.8556760      0.4476856      0.3955106
 Standard basis: 6-311G(d,p) (5D, 7F)
 There are   288 symmetry adapted basis functions of A   symmetry.
 Integral buffers will be    131072 words long.
 Raffenetti 2 integral format.
 Two-electron integral symmetry is turned on.
   288 basis functions,   480 primitive gaussians,   300 cartesian basis functions
    48 alpha electrons       48 beta electrons
       nuclear repulsion energy       781.5233031593 Hartrees.
 NAtoms=   24 NActive=   24 NUniq=   24 SFac= 1.00D+00 NAtFMM=   50 NAOKFM=F Big=F
 One-electron integrals computed using PRISM.
 NBasis=   288 RedAO= T  NBF=   288
 NBsUse=   288 1.00D-06 NBFU=   288
 Harris functional with IExCor=  402 diagonalized for initial guess.
 ExpMin= 1.03D-01 ExpMax= 8.59D+03 ExpMxC= 1.30D+03 IAcc=1 IRadAn=         1 AccDes= 0.00D+00
 HarFok:  IExCor=  402 AccDes= 0.00D+00 IRadAn=         1 IDoV= 1
 ScaDFX=  1.000000  1.000000  1.000000  1.000000
 FoFCou: FMM=F IPFlag=           0 FMFlag=      100000 FMFlg1=           0
         NFxFlg=           0 DoJE=T BraDBF=F KetDBF=T FulRan=T
         Omega=  0.000000  0.000000  1.000000  0.000000  0.000000 ICntrl=     500 IOpCl=  0
         NMat0=    1 NMatS0=    1 NMatT0=    0 NMatD0=    1 NMtDS0=    0 NMtDT0=    0
         I1Cent=           4 NGrid=           0.
 Petite list used in FoFCou.
 Initial guess orbital symmetries:
       Occupied  (A) (A) (A) (A) (A) (A) (A) (A) (A) (A) (A) (A)
                 (A) (A) (A) (A) (A) (A) (A) (A) (A) (A) (A) (A)
                 (A) (A) (A) (A) (A) (A) (A) (A) (A) (A) (A) (A)
                 (A) (A) (A) (A) (A) (A) (A) (A) (A) (A) (A) (A)
       Virtual   (A) (A) (A) (A) (A) (A) (A) (A) (A) (A) (A) (A)
                 (A) (A) (A) (A) (A) (A) (A) (A) (A) (A) (A) (A)
                 (A) (A) (A) (A) (A) (A) (A) (A) (A) (A) (A) (A)
                 (A) (A) (A) (A) (A) (A) (A) (A) (A) (A) (A) (A)
                 (A) (A) (A) (A) (A) (A) (A) (A) (A) (A) (A) (A)
                 (A) (A) (A) (A) (A) (A) (A) (A) (A) (A) (A) (A)
                 (A) (A) (A) (A) (A) (A) (A) (A) (A) (A) (A) (A)
                 (A) (A) (A) (A) (A) (A) (A) (A) (A) (A) (A) (A)
                 (A) (A) (A) (A) (A) (A) (A) (A) (A) (A) (A) (A)
                 (A) (A) (A) (A) (A) (A) (A) (A) (A) (A) (A) (A)
                 (A) (A) (A) (A) (A) (A) (A) (A) (A) (A) (A) (A)
                 (A) (A) (A) (A) (A) (A) (A) (A) (A) (A) (A) (A)
                 (A) (A) (A) (A) (A) (A) (A) (A) (A) (A) (A) (A)
                 (A) (A) (A) (A) (A) (A) (A) (A) (A) (A) (A) (A)
                 (A) (A) (A) (A) (A) (A) (A) (A) (A) (A) (A) (A)
                 (A) (A) (A) (A) (A) (A) (A) (A) (A) (A) (A) (A)
                 (A) (A) (A) (A) (A) (A) (A) (A) (A) (A) (A) (A)
                 (A) (A) (A) (A) (A) (A) (A) (A) (A) (A) (A) (A)
                 (A) (A) (A) (A) (A) (A) (A) (A) (A) (A) (A) (A)
                 (A) (A) (A) (A) (A) (A) (A) (A) (A) (A) (A) (A)
 The electronic state of the initial guess is 1-A.
 Requested convergence on RMS density matrix=1.00D-08 within 128 cycles.
 Requested convergence on MAX density matrix=1.00D-06.
 Requested convergence on             energy=1.00D-06.
 No special actions if energy rises.
 Keep R1 ints in memory in canonical form, NReq=1033417440.
 Integral accuracy reduced to 1.0D-05 until final iterations.
 Initial convergence to 1.0D-05 achieved.  Increase integral accuracy.
 SCF Done:  E(RB3LYP) =  -687.317732713     A.U. after   14 cycles
             Convg  =    0.5822D-08             -V/T =  2.0030

 **********************************************************************

            Population analysis using the SCF density.

 **********************************************************************

 Orbital symmetries:
       Occupied  (A) (A) (A) (A) (A) (A) (A) (A) (A) (A) (A) (A)
                 (A) (A) (A) (A) (A) (A) (A) (A) (A) (A) (A) (A)
                 (A) (A) (A) (A) (A) (A) (A) (A) (A) (A) (A) (A)
                 (A) (A) (A) (A) (A) (A) (A) (A) (A) (A) (A) (A)
       Virtual   (A) (A) (A) (A) (A) (A) (A) (A) (A) (A) (A) (A)
                 (A) (A) (A) (A) (A) (A) (A) (A) (A) (A) (A) (A)
                 (A) (A) (A) (A) (A) (A) (A) (A) (A) (A) (A) (A)
                 (A) (A) (A) (A) (A) (A) (A) (A) (A) (A) (A) (A)
                 (A) (A) (A) (A) (A) (A) (A) (A) (A) (A) (A) (A)
                 (A) (A) (A) (A) (A) (A) (A) (A) (A) (A) (A) (A)
                 (A) (A) (A) (A) (A) (A) (A) (A) (A) (A) (A) (A)
                 (A) (A) (A) (A) (A) (A) (A) (A) (A) (A) (A) (A)
                 (A) (A) (A) (A) (A) (A) (A) (A) (A) (A) (A) (A)
                 (A) (A) (A) (A) (A) (A) (A) (A) (A) (A) (A) (A)
                 (A) (A) (A) (A) (A) (A) (A) (A) (A) (A) (A) (A)
                 (A) (A) (A) (A) (A) (A) (A) (A) (A) (A) (A) (A)
                 (A) (A) (A) (A) (A) (A) (A) (A) (A) (A) (A) (A)
                 (A) (A) (A) (A) (A) (A) (A) (A) (A) (A) (A) (A)
                 (A) (A) (A) (A) (A) (A) (A) (A) (A) (A) (A) (A)
                 (A) (A) (A) (A) (A) (A) (A) (A) (A) (A) (A) (A)
                 (A) (A) (A) (A) (A) (A) (A) (A) (A) (A) (A) (A)
                 (A) (A) (A) (A) (A) (A) (A) (A) (A) (A) (A) (A)
                 (A) (A) (A) (A) (A) (A) (A) (A) (A) (A) (A) (A)
                 (A) (A) (A) (A) (A) (A) (A) (A) (A) (A) (A) (A)
 The electronic state is 1-A.
 Alpha  occ. eigenvalues --  -19.13629 -19.13203 -19.12053 -19.11674 -19.11380
 Alpha  occ. eigenvalues --  -19.11310 -10.26411 -10.24299 -10.23967 -10.23342
 Alpha  occ. eigenvalues --  -10.22985 -10.21766  -1.05976  -1.04713  -1.03390
 Alpha  occ. eigenvalues --   -1.03241  -1.01620  -1.01172  -0.78905  -0.75874
 Alpha  occ. eigenvalues --   -0.71421  -0.65640  -0.59488  -0.57355  -0.54819
 Alpha  occ. eigenvalues --   -0.53854  -0.53134  -0.52414  -0.49693  -0.48792
 Alpha  occ. eigenvalues --   -0.47572  -0.45361  -0.43935  -0.43429  -0.42146
 Alpha  occ. eigenvalues --   -0.41079  -0.37609  -0.36695  -0.35626  -0.35300
 Alpha  occ. eigenvalues --   -0.34140  -0.33765  -0.32151  -0.29689  -0.28391
 Alpha  occ. eigenvalues --   -0.27672  -0.26841  -0.25022
 Alpha virt. eigenvalues --   -0.03926   0.00180   0.01901   0.02775   0.03395
 Alpha virt. eigenvalues --    0.05777   0.06600   0.08096   0.10135   0.10940
 Alpha virt. eigenvalues --    0.11970   0.12905   0.14430   0.15698   0.17237
 Alpha virt. eigenvalues --    0.18144   0.18805   0.19949   0.22739   0.24910
 Alpha virt. eigenvalues --    0.26640   0.27320   0.29710   0.31880   0.35512
 Alpha virt. eigenvalues --    0.36717   0.37683   0.38075   0.38691   0.39081
 Alpha virt. eigenvalues --    0.40929   0.41799   0.44256   0.45853   0.46963
 Alpha virt. eigenvalues --    0.47612   0.48236   0.49309   0.50188   0.51484
 Alpha virt. eigenvalues --    0.52228   0.53437   0.53585   0.56580   0.57778
 Alpha virt. eigenvalues --    0.58264   0.60081   0.60568   0.61340   0.62712
 Alpha virt. eigenvalues --    0.63706   0.64737   0.66549   0.68060   0.72455
 Alpha virt. eigenvalues --    0.74039   0.77129   0.78988   0.79350   0.81227
 Alpha virt. eigenvalues --    0.82191   0.83048   0.85114   0.85463   0.86106
 Alpha virt. eigenvalues --    0.87678   0.88499   0.89127   0.93299   0.93959
 Alpha virt. eigenvalues --    0.95710   0.97055   0.98672   1.01021   1.03565
 Alpha virt. eigenvalues --    1.06817   1.07705   1.10851   1.13585   1.18233
 Alpha virt. eigenvalues --    1.19135   1.21664   1.27129   1.29885   1.32625
 Alpha virt. eigenvalues --    1.33255   1.34985   1.35884   1.36792   1.37815
 Alpha virt. eigenvalues --    1.37993   1.40420   1.42184   1.44347   1.44820
 Alpha virt. eigenvalues --    1.44961   1.46959   1.47892   1.49054   1.52107
 Alpha virt. eigenvalues --    1.52943   1.53705   1.54810   1.57131   1.57742
 Alpha virt. eigenvalues --    1.58129   1.60435   1.62406   1.63540   1.64193
 Alpha virt. eigenvalues --    1.65621   1.67010   1.67703   1.70931   1.72396
 Alpha virt. eigenvalues --    1.73781   1.75758   1.77312   1.79769   1.83814
 Alpha virt. eigenvalues --    1.87290   1.88401   1.91722   1.92875   1.93215
 Alpha virt. eigenvalues --    1.94731   1.97363   1.98494   1.99709   2.00364
 Alpha virt. eigenvalues --    2.03119   2.05302   2.06447   2.08804   2.10066
 Alpha virt. eigenvalues --    2.12028   2.15995   2.18263   2.20166   2.21774
 Alpha virt. eigenvalues --    2.23796   2.28124   2.34121   2.38720   2.40166
 Alpha virt. eigenvalues --    2.41583   2.42545   2.44070   2.45167   2.49605
 Alpha virt. eigenvalues --    2.50859   2.52035   2.54047   2.55881   2.60560
 Alpha virt. eigenvalues --    2.61446   2.66224   2.69439   2.70309   2.73710
 Alpha virt. eigenvalues --    2.77675   2.82516   2.84585   2.86092   2.87857
 Alpha virt. eigenvalues --    2.89849   2.91944   2.92655   2.94047   2.96734
 Alpha virt. eigenvalues --    3.00744   3.02170   3.06453   3.08654   3.10009
 Alpha virt. eigenvalues --    3.11153   3.12528   3.13901   3.15899   3.16891
 Alpha virt. eigenvalues --    3.18608   3.19701   3.22531   3.25852   3.26300
 Alpha virt. eigenvalues --    3.27603   3.29679   3.31100   3.32702   3.34058
 Alpha virt. eigenvalues --    3.42501   3.48673   3.57964   3.71988   3.76514
 Alpha virt. eigenvalues --    3.78259   3.78695   3.80611   3.81931   3.84042
 Alpha virt. eigenvalues --    3.88179   3.88985   3.91888   3.92303   3.93093
 Alpha virt. eigenvalues --    4.01855   4.03730   4.08374   4.20390   4.34618
 Alpha virt. eigenvalues --    4.83748   4.86699   4.90953   4.93289   4.95779
 Alpha virt. eigenvalues --    5.01809   5.04400   5.23172   5.25706   5.26908
 Alpha virt. eigenvalues --    5.28324   5.28984   5.56237   5.58501   5.61254
 Alpha virt. eigenvalues --    5.62762   5.65328   5.66434  23.67896  23.75601
 Alpha virt. eigenvalues --   23.77970  23.79145  23.80143  23.82460  49.85957
 Alpha virt. eigenvalues --   49.87056  49.90160  49.90745  49.93306  49.96674
          Condensed to atoms (all electrons):
              1          2          3          4          5          6
     1  C    5.052376   0.257203  -0.034459   0.387398   0.381835   0.197365
     2  O    0.257203   7.913196   0.302717  -0.023090  -0.030834  -0.038647
     3  H   -0.034459   0.302717   0.499896  -0.004598  -0.006220   0.010542
     4  H    0.387398  -0.023090  -0.004598   0.559059  -0.030436  -0.041083
     5  H    0.381835  -0.030834  -0.006220  -0.030436   0.609722  -0.049954
     6  C    0.197365  -0.038647   0.010542  -0.041083  -0.049954   4.958964
     7  O   -0.089687   0.004134  -0.000074   0.000952   0.001629   0.651734
     8  C   -0.122924   0.002419  -0.000658   0.012252   0.009917   0.215218
     9  C    0.006617  -0.000050   0.000051  -0.017001  -0.000492  -0.055060
    10  C    0.000115   0.000000  -0.000005   0.001552   0.000662   0.004258
    11  C   -0.000061   0.000000   0.000000  -0.000222  -0.000048   0.000150
    12  H   -0.000006   0.000000   0.000000  -0.000121   0.000017  -0.000021
    13  H    0.000038   0.000000   0.000000   0.000016  -0.000093  -0.000019
    14  O    0.000000   0.000000   0.000000   0.000000   0.000000   0.000000
    15  H    0.000000   0.000000   0.000000   0.000000   0.000000   0.000000
    16  H    0.008704  -0.000130   0.000033  -0.000762   0.000180  -0.023934
    17  O    0.003932  -0.000007   0.000010   0.000194   0.000069  -0.051050
    18  H   -0.000198   0.000003  -0.000001  -0.000024  -0.000124   0.001911
    19  H   -0.002071  -0.000300   0.000011   0.001627   0.005886  -0.006330
    20  O   -0.012007   0.000320  -0.000079   0.027844  -0.001968   0.000346
    21  H    0.007626  -0.000741  -0.000098  -0.004485  -0.000752  -0.002177
    22  H   -0.000129   0.000000   0.000000  -0.000023   0.000027   0.001144
    23  O   -0.000029   0.000000   0.000000  -0.000053  -0.000008   0.000327
    24  H   -0.000001   0.000000   0.000000   0.000009   0.000000  -0.000001
              7          8          9         10         11         12
     1  C   -0.089687  -0.122924   0.006617   0.000115  -0.000061  -0.000006
     2  O    0.004134   0.002419  -0.000050   0.000000   0.000000   0.000000
     3  H   -0.000074  -0.000658   0.000051  -0.000005   0.000000   0.000000
     4  H    0.000952   0.012252  -0.017001   0.001552  -0.000222  -0.000121
     5  H    0.001629   0.009917  -0.000492   0.000662  -0.000048   0.000017
     6  C    0.651734   0.215218  -0.055060   0.004258   0.000150  -0.000021
     7  O    7.779831  -0.072808   0.004857  -0.000129   0.000001   0.000000
     8  C   -0.072808   5.278417   0.155753  -0.018669   0.008392  -0.000417
     9  C    0.004857   0.155753   5.540818   0.112123  -0.074647  -0.005415
    10  C   -0.000129  -0.018669   0.112123   5.228469   0.313474  -0.036018
    11  C    0.000001   0.008392  -0.074647   0.313474   4.808963   0.385039
    12  H    0.000000  -0.000417  -0.005415  -0.036018   0.385039   0.603912
    13  H    0.000000  -0.000753   0.013608  -0.055673   0.379099  -0.044641
    14  O    0.000000  -0.000051   0.003161  -0.049908   0.277705  -0.035293
    15  H    0.000000   0.000019  -0.000685   0.009917  -0.034711  -0.005221
    16  H    0.003397   0.363844  -0.040827  -0.012273   0.001070   0.000154
    17  O    0.000578   0.251994  -0.081458   0.011503  -0.000126  -0.000045
    18  H    0.002003  -0.024349   0.006352   0.001488   0.000070   0.000007
    19  H    0.000001  -0.043756   0.385697  -0.038684  -0.004563   0.000237
    20  O   -0.000081  -0.044817   0.182474  -0.050768   0.000324   0.013539
    21  H    0.000067   0.012125  -0.022299  -0.001935   0.002337   0.001681
    22  H   -0.000017  -0.007389  -0.046537   0.369470  -0.033608   0.011941
    23  O    0.000000   0.007088  -0.074526   0.241193  -0.068950   0.002798
    24  H   -0.000001   0.001644   0.006051  -0.028078   0.004970  -0.001324
             13         14         15         16         17         18
     1  C    0.000038   0.000000   0.000000   0.008704   0.003932  -0.000198
     2  O    0.000000   0.000000   0.000000  -0.000130  -0.000007   0.000003
     3  H    0.000000   0.000000   0.000000   0.000033   0.000010  -0.000001
     4  H    0.000016   0.000000   0.000000  -0.000762   0.000194  -0.000024
     5  H   -0.000093   0.000000   0.000000   0.000180   0.000069  -0.000124
     6  C   -0.000019   0.000000   0.000000  -0.023934  -0.051050   0.001911
     7  O    0.000000   0.000000   0.000000   0.003397   0.000578   0.002003
     8  C   -0.000753  -0.000051   0.000019   0.363844   0.251994  -0.024349
     9  C    0.013608   0.003161  -0.000685  -0.040827  -0.081458   0.006352
    10  C   -0.055673  -0.049908   0.009917  -0.012273   0.011503   0.001488
    11  C    0.379099   0.277705  -0.034711   0.001070  -0.000126   0.000070
    12  H   -0.044641  -0.035293  -0.005221   0.000154  -0.000045   0.000007
    13  H    0.675028  -0.038336  -0.006805  -0.000160  -0.000069  -0.000001
    14  O   -0.038336   7.931185   0.308825  -0.000009   0.000001  -0.000003
    15  H   -0.006805   0.308825   0.491726   0.000001  -0.000001   0.000001
    16  H   -0.000160  -0.000009   0.000001   0.560622  -0.023011  -0.017974
    17  O   -0.000069   0.000001  -0.000001  -0.023011   7.947951   0.312273
    18  H   -0.000001  -0.000003   0.000001  -0.017974   0.312273   0.464792
    19  H    0.005526  -0.000316  -0.000049   0.011160   0.005525  -0.000992
    20  O   -0.000504   0.000024   0.000020   0.005280   0.001710  -0.000335
    21  H   -0.000686  -0.000036   0.000003  -0.001310  -0.000506   0.000076
    22  H   -0.007656   0.007606  -0.000557   0.001726   0.017849  -0.001076
    23  O    0.006924   0.002802  -0.000008   0.017106  -0.000341   0.000014
    24  H   -0.000401   0.003359   0.000031  -0.001032   0.000027   0.000297
             19         20         21         22         23         24
     1  C   -0.002071  -0.012007   0.007626  -0.000129  -0.000029  -0.000001
     2  O   -0.000300   0.000320  -0.000741   0.000000   0.000000   0.000000
     3  H    0.000011  -0.000079  -0.000098   0.000000   0.000000   0.000000
     4  H    0.001627   0.027844  -0.004485  -0.000023  -0.000053   0.000009
     5  H    0.005886  -0.001968  -0.000752   0.000027  -0.000008   0.000000
     6  C   -0.006330   0.000346  -0.002177   0.001144   0.000327  -0.000001
     7  O    0.000001  -0.000081   0.000067  -0.000017   0.000000  -0.000001
     8  C   -0.043756  -0.044817   0.012125  -0.007389   0.007088   0.001644
     9  C    0.385697   0.182474  -0.022299  -0.046537  -0.074526   0.006051
    10  C   -0.038684  -0.050768  -0.001935   0.369470   0.241193  -0.028078
    11  C   -0.004563   0.000324   0.002337  -0.033608  -0.068950   0.004970
    12  H    0.000237   0.013539   0.001681   0.011941   0.002798  -0.001324
    13  H    0.005526  -0.000504  -0.000686  -0.007656   0.006924  -0.000401
    14  O   -0.000316   0.000024  -0.000036   0.007606   0.002802   0.003359
    15  H   -0.000049   0.000020   0.000003  -0.000557  -0.000008   0.000031
    16  H    0.011160   0.005280  -0.001310   0.001726   0.017106  -0.001032
    17  O    0.005525   0.001710  -0.000506   0.017849  -0.000341   0.000027
    18  H   -0.000992  -0.000335   0.000076  -0.001076   0.000014   0.000297
    19  H    0.616954  -0.032741  -0.024129   0.001046   0.004463  -0.000624
    20  O   -0.032741   8.003367   0.295923   0.004137   0.001535  -0.000311
    21  H   -0.024129   0.295923   0.503029  -0.000183  -0.000300  -0.000004
    22  H    0.001046   0.004137  -0.000183   0.596459  -0.024920  -0.015614
    23  O    0.004463   0.001535  -0.000300  -0.024920   7.968683   0.305868
    24  H   -0.000624  -0.000311  -0.000004  -0.015614   0.305868   0.479409
 Mulliken atomic charges:
              1
     1  C   -0.041638
     2  O   -0.386194
     3  H    0.232931
     4  H    0.130996
     5  H    0.110983
     6  C    0.226317
     7  O   -0.286387
     8  C    0.017507
     9  C    0.001437
    10  C   -0.002085
    11  C    0.035342
    12  H    0.109195
    13  H    0.075558
    14  O   -0.410716
    15  H    0.237497
    16  H    0.148145
    17  O   -0.397001
    18  H    0.255789
    19  H    0.116420
    20  O   -0.393231
    21  H    0.236773
    22  H    0.126303
    23  O   -0.389665
    24  H    0.245725
 Sum of Mulliken atomic charges =   0.00000
 Mulliken charges with hydrogens summed into heavy atoms:
              1
     1  C    0.200340
     2  O   -0.153263
     6  C    0.226317
     7  O   -0.286387
     8  C    0.165652
     9  C    0.117857
    10  C    0.124218
    11  C    0.220096
    14  O   -0.173219
    17  O   -0.141213
    20  O   -0.156458
    23  O   -0.143940
 Sum of Mulliken charges with hydrogens summed into heavy atoms =   0.00000
 Electronic spatial extent (au):  <R**2>=           2751.3653
 Charge=              0.0000 electrons
 Dipole moment (field-independent basis, Debye):
    X=             -3.3782    Y=             -3.0997    Z=             -1.8624  Tot=              4.9486
 Quadrupole moment (field-independent basis, Debye-Ang):
   XX=            -85.7265   YY=            -53.8852   ZZ=            -74.9059
   XY=             -7.8274   XZ=              1.8754   YZ=              6.8900
 Traceless Quadrupole moment (field-independent basis, Debye-Ang):
   XX=            -14.2206   YY=             17.6206   ZZ=             -3.4000
   XY=             -7.8274   XZ=              1.8754   YZ=              6.8900
 Octapole moment (field-independent basis, Debye-Ang**2):
  XXX=            -84.9201  YYY=             -2.0979  ZZZ=              0.6853  XYY=             -6.5156
  XXY=            -57.7116  XXZ=            -15.4924  XZZ=              3.0799  YZZ=             -0.7641
  YYZ=              4.3072  XYZ=             -4.9085
 Hexadecapole moment (field-independent basis, Debye-Ang**3):
 XXXX=          -2613.0980 YYYY=           -417.1158 ZZZZ=           -219.2093 XXXY=             21.0169
 XXXZ=              5.0425 YYYX=            -86.6341 YYYZ=             14.3228 ZZZX=              0.7282
 ZZZY=              8.5796 XXYY=           -383.8977 XXZZ=           -452.6289 YYZZ=           -129.6994
 XXYZ=             40.2790 YYXZ=            -15.5436 ZZXY=             -7.6881
 N-N= 7.815233031593D+02 E-N=-3.179265224459D+03  KE= 6.852567172967D+02
 Calling FoFJK, ICntrl=      2127 FMM=F ISym2X=0 I1Cent= 0 IOpClX= 0 NMat=1 NMatS=1 NMatT=0.
 ***** Axes restored to original set *****
 -------------------------------------------------------------------
 Center     Atomic                   Forces (Hartrees/Bohr)
 Number     Number              X              Y              Z
 -------------------------------------------------------------------
      1        6           0.005024393   -0.003150575    0.024670348
      2        8           0.004226124    0.002393581    0.010041457
      3        1          -0.010979443   -0.000270928   -0.003812860
      4        1          -0.004241536    0.002629688   -0.002004017
      5        1           0.001629411    0.003148502   -0.009379245
      6        6          -0.022712163   -0.007578236    0.032813529
      7        8           0.030993780    0.002654086   -0.031025425
      8        6          -0.010725963    0.007705848   -0.013775226
      9        6           0.005830586   -0.001973408    0.001810664
     10        6           0.017435772   -0.012694027   -0.008349989
     11        6           0.012105248    0.007825876   -0.005557837
     12        1          -0.003630584    0.000115113    0.009107870
     13        1           0.001968974    0.003554881    0.008075499
     14        8           0.001916647    0.003147342   -0.009332004
     15        1          -0.010902613   -0.000656730    0.004562634
     16        1           0.009839408   -0.006313119    0.000623661
     17        8          -0.015217619    0.004932396   -0.008705833
     18        1           0.009926100    0.006836996    0.007496778
     19        1          -0.010180811    0.006552427   -0.001015980
     20        8           0.020126288   -0.009207513   -0.004710854
     21        1          -0.009483991   -0.006332403   -0.009496738
     22        1          -0.003192097   -0.003076644    0.002486857
     23        8          -0.030432245    0.003813179    0.000812460
     24        1           0.010676334   -0.004056332    0.004664252
 -------------------------------------------------------------------
 Cartesian Forces:  Max     0.032813529 RMS     0.011105609

 GradGradGradGradGradGradGradGradGradGradGradGradGradGradGradGradGradGrad
 Berny optimization.
 Internal  Forces:  Max     0.044892741 RMS     0.010700129
 Search for a local minimum.
 Step number   1 out of a maximum of  125
 All quantities printed in internal units (Hartrees-Bohrs-Radians)
 Mixed Optimization -- RFO/linear search
 Second derivative matrix not updated -- first step.
 ITU=  0
     Eigenvalues ---    0.00235   0.00287   0.00383   0.00400   0.00474
     Eigenvalues ---    0.00546   0.01330   0.01367   0.01374   0.01398
     Eigenvalues ---    0.01513   0.03781   0.04319   0.04406   0.04772
     Eigenvalues ---    0.05234   0.05249   0.05269   0.05567   0.06358
     Eigenvalues ---    0.07288   0.07362   0.07927   0.08492   0.11472
     Eigenvalues ---    0.11550   0.13692   0.13970   0.15909   0.16000
     Eigenvalues ---    0.16000   0.16000   0.16000   0.16000   0.17086
     Eigenvalues ---    0.18243   0.19154   0.19519   0.19782   0.22028
     Eigenvalues ---    0.22170   0.24991   0.25000   0.28507   0.28855
     Eigenvalues ---    0.29519   0.29643   0.30691   0.33939   0.34161
     Eigenvalues ---    0.34212   0.34235   0.34424   0.34470   0.34557
     Eigenvalues ---    0.41374   0.41777   0.41860   0.42126   0.43452
     Eigenvalues ---    0.52821   0.52872   0.52885   0.52899   0.52984
     Eigenvalues ---    0.90276
 RFO step:  Lambda=-5.02124671D-02 EMin= 2.34970769D-03
 Linear search not attempted -- first point.
 Maximum step size (   0.300) exceeded in Quadratic search.
    -- Step size scaled by   0.801
 Iteration  1 RMS(Cart)=  0.25205208 RMS(Int)=  0.01239802
 Iteration  2 RMS(Cart)=  0.03138254 RMS(Int)=  0.00074624
 Iteration  3 RMS(Cart)=  0.00052234 RMS(Int)=  0.00072729
 Iteration  4 RMS(Cart)=  0.00000030 RMS(Int)=  0.00072729
 Variable       Old X    -DE/DX   Delta X   Delta X   Delta X     New X
                                 (Linear)    (Quad)   (Total)
    R1        2.67116   0.00623   0.00000   0.01030   0.01030   2.68145
    R2        2.06543  -0.00353   0.00000  -0.00716  -0.00716   2.05827
    R3        2.06400   0.00634   0.00000   0.01282   0.01282   2.07682
    R4        2.86607   0.00274   0.00000   0.00614   0.00614   2.87221
    R5        1.83773  -0.01162   0.00000  -0.01608  -0.01608   1.82165
    R6        2.32806  -0.04360   0.00000  -0.03666  -0.03666   2.29140
    R7        2.88681   0.02162   0.00000   0.04997   0.04997   2.93678
    R8        2.90306   0.00524   0.00000   0.01240   0.01240   2.91546
    R9        2.06974  -0.00032   0.00000  -0.00066  -0.00066   2.06908
   R10        2.68763   0.01260   0.00000   0.02141   0.02141   2.70904
   R11        2.91044  -0.00593   0.00000  -0.01416  -0.01416   2.89628
   R12        2.07433  -0.00069   0.00000  -0.00142  -0.00142   2.07292
   R13        2.69207   0.01380   0.00000   0.02363   0.02363   2.71571
   R14        2.88932  -0.00180   0.00000  -0.00418  -0.00418   2.88514
   R15        2.07060  -0.00151   0.00000  -0.00308  -0.00308   2.06752
   R16        2.69728   0.00614   0.00000   0.01061   0.01061   2.70789
   R17        2.06935  -0.00012   0.00000  -0.00024  -0.00024   2.06911
   R18        2.06621   0.00575   0.00000   0.01168   0.01168   2.07789
   R19        2.69101   0.00623   0.00000   0.01064   0.01064   2.70166
   R20        1.83748  -0.01180   0.00000  -0.01632  -0.01632   1.82116
   R21        1.83821  -0.01369   0.00000  -0.01896  -0.01896   1.81925
   R22        1.83668  -0.01396   0.00000  -0.01928  -0.01928   1.81740
   R23        1.83761  -0.01205   0.00000  -0.01667  -0.01667   1.82094
    A1        1.89497   0.00676   0.00000   0.02894   0.02869   1.92366
    A2        1.89387   0.00678   0.00000   0.02862   0.02834   1.92221
    A3        1.92697  -0.00867   0.00000  -0.02454  -0.02448   1.90249
    A4        1.92656  -0.00088   0.00000  -0.00418  -0.00478   1.92178
    A5        1.91043  -0.00178   0.00000  -0.01326  -0.01320   1.89723
    A6        1.91099  -0.00214   0.00000  -0.01508  -0.01504   1.89596
    A7        1.87619  -0.00062   0.00000  -0.00235  -0.00235   1.87384
    A8        2.11798  -0.01640   0.00000  -0.04338  -0.04393   2.07404
    A9        2.04303   0.04489   0.00000   0.12019   0.11966   2.16269
   A10        2.12188  -0.02839   0.00000  -0.07540  -0.07592   2.04596
   A11        2.01561   0.03958   0.00000   0.13107   0.13176   2.14737
   A12        1.86956  -0.00837   0.00000  -0.02142  -0.02055   1.84901
   A13        1.88725  -0.01878   0.00000  -0.05809  -0.05762   1.82962
   A14        1.92887  -0.01529   0.00000  -0.05791  -0.05814   1.87073
   A15        1.88958  -0.00999   0.00000  -0.02979  -0.02897   1.86061
   A16        1.86730   0.01140   0.00000   0.03086   0.02917   1.89646
   A17        2.01558  -0.01853   0.00000  -0.07147  -0.07162   1.94395
   A18        1.95335  -0.00125   0.00000  -0.01172  -0.01511   1.93824
   A19        1.83605   0.02278   0.00000   0.08483   0.08324   1.91930
   A20        1.87740   0.00666   0.00000   0.00012  -0.00116   1.87624
   A21        1.91801  -0.01073   0.00000  -0.04014  -0.03789   1.88012
   A22        1.85723   0.00227   0.00000   0.04795   0.04711   1.90434
   A23        1.95210  -0.00622   0.00000  -0.00944  -0.00964   1.94246
   A24        1.93255   0.00122   0.00000  -0.01839  -0.01893   1.91362
   A25        1.91878  -0.00543   0.00000  -0.01335  -0.01411   1.90467
   A26        1.88432  -0.00065   0.00000  -0.00103  -0.00099   1.88333
   A27        1.78133   0.01715   0.00000   0.08066   0.08073   1.86206
   A28        1.99016  -0.00526   0.00000  -0.03156  -0.03255   1.95761
   A29        1.93950  -0.00592   0.00000  -0.03325  -0.03317   1.90632
   A30        1.95260  -0.00099   0.00000  -0.01300  -0.01299   1.93961
   A31        1.89918  -0.01100   0.00000  -0.03051  -0.03040   1.86878
   A32        1.91100   0.00068   0.00000   0.00154   0.00029   1.91129
   A33        1.88009   0.01088   0.00000   0.04849   0.04790   1.92798
   A34        1.87901   0.00717   0.00000   0.03107   0.03063   1.90964
   A35        1.86806   0.00151   0.00000   0.00575   0.00575   1.87381
   A36        1.88091   0.00449   0.00000   0.01710   0.01710   1.89801
   A37        1.88426   0.00319   0.00000   0.01215   0.01215   1.89641
   A38        1.88331   0.00365   0.00000   0.01393   0.01393   1.89724
    D1        1.04720   0.00318   0.00000   0.01185   0.01236   1.05956
    D2       -1.04720  -0.00363   0.00000  -0.01656  -0.01707  -1.06427
    D3        3.14159  -0.00002   0.00000  -0.00115  -0.00115   3.14045
    D4       -0.02957  -0.00054   0.00000  -0.00644  -0.00615  -0.03572
    D5        3.13798  -0.00458   0.00000  -0.06650  -0.06677   3.07121
    D6        2.05550   0.00132   0.00000   0.00579   0.00605   2.06155
    D7       -1.06014  -0.00272   0.00000  -0.05428  -0.05456  -1.11470
    D8       -2.11363  -0.00222   0.00000  -0.01713  -0.01685  -2.13048
    D9        1.05392  -0.00626   0.00000  -0.07719  -0.07746   0.97646
   D10       -0.02602   0.00216   0.00000   0.03969   0.03840   0.01239
   D11        2.13081   0.00289   0.00000   0.03752   0.03745   2.16825
   D12       -2.14533   0.00266   0.00000   0.03394   0.03445  -2.11089
   D13        3.14159  -0.00208   0.00000  -0.02104  -0.02176   3.11983
   D14       -0.98477  -0.00135   0.00000  -0.02321  -0.02271  -1.00748
   D15        1.02227  -0.00158   0.00000  -0.02679  -0.02571   0.99656
   D16        3.12086   0.00620   0.00000   0.06775   0.06608  -3.09625
   D17       -1.00654  -0.00056   0.00000   0.00103   0.00093  -1.00561
   D18        1.00309   0.01455   0.00000   0.10058   0.10089   1.10398
   D19        0.99555   0.00034   0.00000   0.04574   0.04537   1.04093
   D20       -3.13185  -0.00641   0.00000  -0.02098  -0.01977   3.13157
   D21       -1.12221   0.00869   0.00000   0.07857   0.08018  -1.04203
   D22       -1.04427   0.00101   0.00000   0.05843   0.05692  -0.98735
   D23        1.11152  -0.00574   0.00000  -0.00829  -0.00823   1.10329
   D24        3.12116   0.00936   0.00000   0.09126   0.09172  -3.07031
   D25       -2.00853   0.01615   0.00000   0.06834   0.06867  -1.93986
   D26        2.07914  -0.01416   0.00000  -0.03681  -0.03737   2.04177
   D27        0.00000   0.00298   0.00000   0.03054   0.03077   0.03077
   D28       -3.12566  -0.01175   0.00000  -0.05808  -0.05838   3.09914
   D29        1.05505  -0.00756   0.00000  -0.03776  -0.03823   1.01682
   D30       -1.15972   0.00242   0.00000   0.02677   0.02606  -1.13365
   D31        0.96229  -0.00191   0.00000   0.00984   0.00987   0.97216
   D32       -1.14019   0.00227   0.00000   0.03016   0.03003  -1.11016
   D33        2.92823   0.01225   0.00000   0.09468   0.09432   3.02255
   D34       -1.05269  -0.00267   0.00000  -0.02607  -0.02523  -1.07793
   D35        3.12801   0.00152   0.00000  -0.00574  -0.00508   3.12294
   D36        0.91324   0.01150   0.00000   0.05878   0.05921   0.97246
   D37       -2.07517  -0.01112   0.00000  -0.07025  -0.07235  -2.14753
   D38        2.02772   0.00326   0.00000  -0.01363  -0.01359   2.01413
   D39        0.00000  -0.00040   0.00000  -0.01973  -0.01767  -0.01767
   D40        1.09888  -0.00058   0.00000   0.01065   0.01085   1.10972
   D41       -1.04308   0.00354   0.00000   0.04211   0.04223  -1.00085
   D42       -3.11698   0.00237   0.00000   0.03127   0.03153  -3.08545
   D43       -3.05394  -0.00344   0.00000  -0.01901  -0.01924  -3.07318
   D44        1.08729   0.00069   0.00000   0.01245   0.01214   1.09943
   D45       -0.98661  -0.00049   0.00000   0.00161   0.00144  -0.98517
   D46       -0.95145  -0.00111   0.00000  -0.01493  -0.01488  -0.96633
   D47       -3.09340   0.00301   0.00000   0.01652   0.01650  -3.07691
   D48        1.11588   0.00184   0.00000   0.00568   0.00580   1.12168
   D49        2.18207  -0.00107   0.00000  -0.01561  -0.01539   2.16668
   D50       -2.02702  -0.00152   0.00000   0.01049   0.01102  -2.01601
   D51        0.00000   0.00562   0.00000   0.04337   0.04262   0.04262
   D52       -3.13543   0.00157   0.00000   0.00889   0.00906  -3.12638
   D53       -1.03109  -0.00548   0.00000  -0.02018  -0.02125  -1.05233
   D54        1.02827   0.00491   0.00000   0.02385   0.02476   1.05302
         Item               Value     Threshold  Converged?
 Maximum Force            0.044893     0.000450     NO 
 RMS     Force            0.010700     0.000300     NO 
 Maximum Displacement     0.949127     0.001800     NO 
 RMS     Displacement     0.271013     0.001200     NO 
 Predicted change in Energy=-2.874380D-02
 GradGradGradGradGradGradGradGradGradGradGradGradGradGradGradGradGradGrad

                          Input orientation:                          
 ---------------------------------------------------------------------
 Center     Atomic      Atomic             Coordinates (Angstroms)
 Number     Number       Type             X           Y           Z
 ---------------------------------------------------------------------
      1          6           0       -0.065136    0.031391    0.303332
      2          8           0       -0.400666    0.139881    1.677781
      3          1           0        0.425231    0.170548    2.173975
      4          1           0        0.501754   -0.881424    0.125173
      5          1           0        0.518765    0.906783   -0.013783
      6          6           0       -1.344366   -0.021636   -0.515742
      7          8           0       -2.410048   -0.006773    0.062528
      8          6           0       -1.378746   -0.050040   -2.069178
      9          6           0       -0.104492   -0.042941   -2.938914
     10          6           0       -0.447514   -0.011046   -4.432341
     11          6           0        0.813993    0.056287   -5.289683
     12          1           0        1.401608   -0.855175   -5.138658
     13          1           0        1.423705    0.933578   -5.029561
     14          8           0        0.391017    0.158428   -6.651510
     15          1           0        1.184497    0.187266   -7.197687
     16          1           0       -1.950986   -0.943055   -2.341010
     17          8           0       -2.134807    1.109884   -2.440721
     18          1           0       -2.975125    0.824936   -2.814180
     19          1           0        0.514551    0.836708   -2.723781
     20          8           0        0.664804   -1.231412   -2.692036
     21          1           0        1.547708   -0.973561   -2.411124
     22          1           0       -1.051309    0.874463   -4.652173
     23          8           0       -1.120747   -1.225684   -4.785566
     24          1           0       -1.968297   -1.003797   -5.186749
 ---------------------------------------------------------------------
                    Distance matrix (angstroms):
                    1          2          3          4          5
     1  C    0.000000
     2  O    1.418964   0.000000
     3  H    1.938848   0.963978   0.000000
     4  H    1.089191   2.065918   2.304363   0.000000
     5  H    1.099006   2.072409   2.310211   1.793678   0.000000
     6  C    1.519909   2.393366   3.225366   2.134986   2.141304
     7  O    2.357552   2.582279   3.539556   3.040975   3.068934
     8  C    2.713117   3.877165   4.615987   3.007101   2.956468
     9  C    3.243338   4.629797   5.144689   3.234072   3.137965
    10  C    4.751275   6.112165   6.666189   4.735990   4.615166
    11  C    5.661741   7.073043   7.474650   5.504314   5.352161
    12  H    5.705488   7.120545   7.448491   5.340257   5.490742
    13  H    5.609843   6.996193   7.312325   5.542157   5.096829
    14  O    6.970943   8.366851   8.825560   6.856894   6.681002
    15  H    7.605996   9.016037   9.402384   7.431859   7.250475
    16  H    3.390947   4.441500   5.222222   3.478763   3.864914
    17  O    3.602292   4.572768   5.360183   4.183369   3.601767
    18  H    4.337814   5.222533   6.072260   4.862114   4.478414
    19  H    3.185591   4.549389   4.943659   3.326963   2.710908
    20  O    3.331624   4.702231   5.069611   2.843545   3.430197
    21  H    3.313528   4.664232   4.857167   2.745052   3.215845
    22  H    5.122533   6.405566   7.019400   5.321484   4.897024
    23  O    5.347096   6.645159   7.264621   5.183279   5.477712
    24  H    5.902087   7.133529   7.828686   5.859407   6.049411
                    6          7          8          9         10
     6  C    0.000000
     7  O    1.212558   0.000000
     8  C    1.554075   2.368465   0.000000
     9  C    2.722040   3.784911   1.542794   0.000000
    10  C    4.017985   4.904631   2.540325   1.532646   0.000000
    11  C    5.239761   6.248567   3.897572   2.525782   1.526751
    12  H    5.441186   6.503910   4.219042   2.786922   2.151903
    13  H    5.380447   6.442926   4.193460   2.767631   2.179552
    14  O    6.378999   7.276783   4.916634   3.750926   2.378355
    15  H    7.147529   8.103649   5.738304   4.455517   3.217130
    16  H    2.132745   2.619992   1.094910   2.139447   2.739112
    17  O    2.368687   2.754803   1.433561   2.387337   2.840773
    18  H    2.942597   3.047376   1.966987   3.001550   3.115467
    19  H    3.011272   4.126531   2.190753   1.096941   2.136219
    20  O    3.199465   4.306052   2.441247   1.437090   2.399000
    21  H    3.586464   4.766284   3.087709   1.968345   2.998776
    22  H    4.242516   4.985094   2.762931   2.161793   1.094085
    23  O    4.441974   5.162563   2.971105   2.416976   1.432954
    24  H    4.813755   5.361354   3.313076   3.074048   1.966588
                   11         12         13         14         15
    11  C    0.000000
    12  H    1.094926   0.000000
    13  H    1.099569   1.792213   0.000000
    14  O    1.429655   2.082644   2.073168   0.000000
    15  H    1.948052   2.318064   2.305423   0.963717   0.000000
    16  H    4.163949   4.367430   4.705167   5.027789   5.890347
    17  O    4.233447   4.862772   4.404110   5.001580   5.873477
    18  H    4.590900   5.232759   4.926401   5.147840   6.076530
    19  H    2.698625   3.079118   2.480436   3.987779   4.570168
    20  O    2.903135   2.582710   3.275230   4.205240   4.752222
    21  H    3.144046   2.734008   3.241723   4.538745   4.938687
    22  H    2.134288   3.040578   2.504319   2.567170   3.456980
    23  O    2.375037   2.573757   3.346070   2.771813   3.623383
    24  H    2.979179   3.373523   3.909451   3.010424   3.924616
                   16         17         18         19         20
    16  H    0.000000
    17  O    2.063563   0.000000
    18  H    2.097271   0.962706   0.000000
    19  H    3.064791   2.678403   3.490867   0.000000
    20  O    2.654943   3.658230   4.182412   2.073814   0.000000
    21  H    3.499529   4.231138   4.883960   2.107662   0.961727
    22  H    3.074779   2.473846   2.661154   2.484359   3.349909
    23  O    2.597120   3.461430   3.395604   3.343444   2.751561
    24  H    2.846440   3.469300   3.160230   3.951987   3.634366
                   21         22         23         24
    21  H    0.000000
    22  H    3.897741   0.000000
    23  O    3.580808   2.105525   0.000000
    24  H    4.479653   2.157429   0.963599   0.000000
 Stoichiometry    C6H12O6
 Framework group  C1[X(C6H12O6)]
 Deg. of freedom    66
 Full point group                 C1      NOp   1
 Largest Abelian subgroup         C1      NOp   1
 Largest concise Abelian subgroup C1      NOp   1
                         Standard orientation:                         
 ---------------------------------------------------------------------
 Center     Atomic      Atomic             Coordinates (Angstroms)
 Number     Number       Type             X           Y           Z
 ---------------------------------------------------------------------
      1          6           0        2.705629   -0.990283   -0.207284
      2          8           0        4.121319   -0.897352   -0.232673
      3          1           0        4.463712   -1.775697   -0.433997
      4          1           0        2.388188   -1.691240    0.563578
      5          1           0        2.329983   -1.312237   -1.188635
      6          6           0        2.125382    0.378301    0.109596
      7          8           0        2.883905    1.299535    0.324697
      8          6           0        0.603129    0.690247    0.133765
      9          6           0       -0.477980   -0.373458   -0.148990
     10          6           0       -1.883647    0.236577   -0.117999
     11          6           0       -2.947564   -0.804691   -0.456837
     12          1           0       -2.945029   -1.585631    0.310619
     13          1           0       -2.760270   -1.256877   -1.441469
     14          8           0       -4.206458   -0.127411   -0.476653
     15          1           0       -4.883067   -0.783889   -0.676620
     16          1           0        0.396949    1.105315    1.125750
     17          8           0        0.425066    1.724890   -0.842403
     18          1           0        0.194311    2.541999   -0.388655
     19          1           0       -0.336463   -0.825877   -1.138217
     20          8           0       -0.426119   -1.403872    0.851403
     21          1           0       -0.295141   -2.250546    0.414475
     22          1           0       -1.952128    1.040314   -0.857148
     23          8           0       -2.166533    0.697100    1.209122
     24          1           0       -2.400181    1.631076    1.168870
 ---------------------------------------------------------------------
 Rotational constants (GHZ):      2.0062108      0.4169834      0.3792891
 Standard basis: 6-311G(d,p) (5D, 7F)
 There are   288 symmetry adapted basis functions of A   symmetry.
 Integral buffers will be    131072 words long.
 Raffenetti 2 integral format.
 Two-electron integral symmetry is turned on.
   288 basis functions,   480 primitive gaussians,   300 cartesian basis functions
    48 alpha electrons       48 beta electrons
       nuclear repulsion energy       773.7803398034 Hartrees.
 NAtoms=   24 NActive=   24 NUniq=   24 SFac= 1.00D+00 NAtFMM=   50 NAOKFM=F Big=F
 One-electron integrals computed using PRISM.
 NBasis=   288 RedAO= T  NBF=   288
 NBsUse=   288 1.00D-06 NBFU=   288
 Initial guess read from the read-write file.
 B after Tr=     0.000000    0.000000    0.000000
         Rot=    1.000000    0.000000    0.000000    0.000000 Ang=   0.00 deg.
 Initial guess orbital symmetries:
       Occupied  (A) (A) (A) (A) (A) (A) (A) (A) (A) (A) (A) (A)
                 (A) (A) (A) (A) (A) (A) (A) (A) (A) (A) (A) (A)
                 (A) (A) (A) (A) (A) (A) (A) (A) (A) (A) (A) (A)
                 (A) (A) (A) (A) (A) (A) (A) (A) (A) (A) (A) (A)
       Virtual   (A) (A) (A) (A) (A) (A) (A) (A) (A) (A) (A) (A)
                 (A) (A) (A) (A) (A) (A) (A) (A) (A) (A) (A) (A)
                 (A) (A) (A) (A) (A) (A) (A) (A) (A) (A) (A) (A)
                 (A) (A) (A) (A) (A) (A) (A) (A) (A) (A) (A) (A)
                 (A) (A) (A) (A) (A) (A) (A) (A) (A) (A) (A) (A)
                 (A) (A) (A) (A) (A) (A) (A) (A) (A) (A) (A) (A)
                 (A) (A) (A) (A) (A) (A) (A) (A) (A) (A) (A) (A)
                 (A) (A) (A) (A) (A) (A) (A) (A) (A) (A) (A) (A)
                 (A) (A) (A) (A) (A) (A) (A) (A) (A) (A) (A) (A)
                 (A) (A) (A) (A) (A) (A) (A) (A) (A) (A) (A) (A)
                 (A) (A) (A) (A) (A) (A) (A) (A) (A) (A) (A) (A)
                 (A) (A) (A) (A) (A) (A) (A) (A) (A) (A) (A) (A)
                 (A) (A) (A) (A) (A) (A) (A) (A) (A) (A) (A) (A)
                 (A) (A) (A) (A) (A) (A) (A) (A) (A) (A) (A) (A)
                 (A) (A) (A) (A) (A) (A) (A) (A) (A) (A) (A) (A)
                 (A) (A) (A) (A) (A) (A) (A) (A) (A) (A) (A) (A)
                 (A) (A) (A) (A) (A) (A) (A) (A) (A) (A) (A) (A)
                 (A) (A) (A) (A) (A) (A) (A) (A) (A) (A) (A) (A)
                 (A) (A) (A) (A) (A) (A) (A) (A) (A) (A) (A) (A)
                 (A) (A) (A) (A) (A) (A) (A) (A) (A) (A) (A) (A)
 Harris functional with IExCor=  402 diagonalized for initial guess.
 ExpMin= 1.03D-01 ExpMax= 8.59D+03 ExpMxC= 1.30D+03 IAcc=1 IRadAn=         1 AccDes= 0.00D+00
 HarFok:  IExCor=  402 AccDes= 0.00D+00 IRadAn=         1 IDoV= 1
 ScaDFX=  1.000000  1.000000  1.000000  1.000000
 FoFCou: FMM=F IPFlag=           0 FMFlag=      100000 FMFlg1=           0
         NFxFlg=           0 DoJE=T BraDBF=F KetDBF=T FulRan=T
         Omega=  0.000000  0.000000  1.000000  0.000000  0.000000 ICntrl=     500 IOpCl=  0
         NMat0=    1 NMatS0=    1 NMatT0=    0 NMatD0=    1 NMtDS0=    0 NMtDT0=    0
         I1Cent=           4 NGrid=           0.
 Petite list used in FoFCou.
 Requested convergence on RMS density matrix=1.00D-08 within 128 cycles.
 Requested convergence on MAX density matrix=1.00D-06.
 Requested convergence on             energy=1.00D-06.
 No special actions if energy rises.
 Keep R1 ints in memory in canonical form, NReq=1033417600.
 Integral accuracy reduced to 1.0D-05 until final iterations.
 Initial convergence to 1.0D-05 achieved.  Increase integral accuracy.
 SCF Done:  E(RB3LYP) =  -687.329611802     A.U. after   13 cycles
             Convg  =    0.8383D-08             -V/T =  2.0031
 Calling FoFJK, ICntrl=      2127 FMM=F ISym2X=0 I1Cent= 0 IOpClX= 0 NMat=1 NMatS=1 NMatT=0.
 ***** Axes restored to original set *****
 -------------------------------------------------------------------
 Center     Atomic                   Forces (Hartrees/Bohr)
 Number     Number              X              Y              Z
 -------------------------------------------------------------------
      1        6          -0.000722380    0.003766794    0.007136409
      2        8           0.000712678    0.000299828   -0.001599820
      3        1          -0.001991132   -0.000339580   -0.001967348
      4        1           0.004802728   -0.003372570   -0.007029161
      5        1           0.002394768   -0.001334361   -0.005115736
      6        6          -0.012327671   -0.000943967    0.012561726
      7        8           0.008857528   -0.001856833   -0.010851023
      8        6          -0.004876310    0.002967739   -0.006994710
      9        6           0.006174137   -0.002991571    0.004725040
     10        6           0.005937116   -0.004328826   -0.008286033
     11        6          -0.000346470    0.002006568   -0.006637830
     12        1          -0.000613744   -0.000222549    0.002174518
     13        1          -0.000344153   -0.000031214    0.004196604
     14        8           0.002002116    0.001876984   -0.000194888
     15        1          -0.002906845   -0.000792925    0.000814340
     16        1           0.004669667   -0.003041376    0.002170126
     17        8          -0.001936864    0.003179413   -0.004528034
     18        1           0.001831228    0.001241990    0.004625023
     19        1          -0.004203071    0.002892566    0.002030690
     20        8           0.000611551   -0.000057088    0.008714937
     21        1          -0.002118084   -0.000637770   -0.000823268
     22        1          -0.000998239   -0.001870908    0.001236476
     23        8          -0.009761490    0.004030336    0.004364783
     24        1           0.005152938   -0.000440681   -0.000722820
 -------------------------------------------------------------------
 Cartesian Forces:  Max     0.012561726 RMS     0.004470419

 GradGradGradGradGradGradGradGradGradGradGradGradGradGradGradGradGradGrad
 Berny optimization.
 Using GEDIIS/GDIIS optimizer.
 Internal  Forces:  Max     0.018921142 RMS     0.004171077
 Search for a local minimum.
 Step number   2 out of a maximum of  125
 All quantities printed in internal units (Hartrees-Bohrs-Radians)
 Mixed Optimization -- RFO/linear search
 Update second derivatives using D2CorX and points    1    2
 DE= -1.19D-02 DEPred=-2.87D-02 R= 4.13D-01
 Trust test= 4.13D-01 RLast= 4.28D-01 DXMaxT set to 3.00D-01
 ITU=  0  0
 Use linear search instead of GDIIS.
     Eigenvalues ---    0.00235   0.00302   0.00383   0.00401   0.00491
     Eigenvalues ---    0.00561   0.01328   0.01374   0.01378   0.01395
     Eigenvalues ---    0.01513   0.03702   0.04379   0.04493   0.04945
     Eigenvalues ---    0.04978   0.05330   0.05459   0.05857   0.06531
     Eigenvalues ---    0.07047   0.07349   0.07491   0.09152   0.10936
     Eigenvalues ---    0.11208   0.13553   0.13864   0.15945   0.16000
     Eigenvalues ---    0.16000   0.16000   0.16005   0.16079   0.16893
     Eigenvalues ---    0.19337   0.19448   0.19595   0.21749   0.22088
     Eigenvalues ---    0.22189   0.24739   0.28374   0.28660   0.29279
     Eigenvalues ---    0.29507   0.30686   0.33935   0.34117   0.34187
     Eigenvalues ---    0.34217   0.34236   0.34384   0.34524   0.40423
     Eigenvalues ---    0.41491   0.41834   0.41994   0.42705   0.45219
     Eigenvalues ---    0.52023   0.52840   0.52882   0.52903   0.53003
     Eigenvalues ---    0.87682
 RFO step:  Lambda=-7.80587704D-03 EMin= 2.34796470D-03
 Quartic linear search produced a step of -0.24946.
 Iteration  1 RMS(Cart)=  0.13788984 RMS(Int)=  0.00506787
 Iteration  2 RMS(Cart)=  0.00958929 RMS(Int)=  0.00058086
 Iteration  3 RMS(Cart)=  0.00002647 RMS(Int)=  0.00058054
 Iteration  4 RMS(Cart)=  0.00000001 RMS(Int)=  0.00058054
 Variable       Old X    -DE/DX   Delta X   Delta X   Delta X     New X
                                 (Linear)    (Quad)   (Total)
    R1        2.68145  -0.00316  -0.00257   0.00039  -0.00218   2.67928
    R2        2.05827   0.00647   0.00179   0.00990   0.01168   2.06996
    R3        2.07682   0.00169  -0.00320   0.01063   0.00743   2.08425
    R4        2.87221  -0.00028  -0.00153   0.00265   0.00112   2.87333
    R5        1.82165  -0.00273   0.00401  -0.01295  -0.00894   1.81271
    R6        2.29140  -0.01298   0.00914  -0.03207  -0.02293   2.26847
    R7        2.93678  -0.00689  -0.01246   0.00992  -0.00254   2.93424
    R8        2.91546  -0.00770  -0.00309  -0.01289  -0.01599   2.89947
    R9        2.06908  -0.00050   0.00016  -0.00143  -0.00127   2.06781
   R10        2.70904   0.00360  -0.00534   0.01828   0.01294   2.72197
   R11        2.89628   0.00340   0.00353   0.00113   0.00466   2.90094
   R12        2.07292   0.00035   0.00035  -0.00003   0.00033   2.07325
   R13        2.71571   0.00112  -0.00590   0.01517   0.00928   2.72498
   R14        2.88514  -0.00190   0.00104  -0.00697  -0.00593   2.87921
   R15        2.06752  -0.00121   0.00077  -0.00430  -0.00353   2.06399
   R16        2.70789  -0.00177  -0.00265   0.00275   0.00010   2.70799
   R17        2.06911   0.00015   0.00006   0.00020   0.00026   2.06937
   R18        2.07789   0.00078  -0.00291   0.00807   0.00516   2.08304
   R19        2.70166  -0.00024  -0.00266   0.00551   0.00285   2.70451
   R20        1.82116  -0.00288   0.00407  -0.01330  -0.00923   1.81193
   R21        1.81925  -0.00376   0.00473  -0.01604  -0.01131   1.80794
   R22        1.81740  -0.00235   0.00481  -0.01424  -0.00943   1.80797
   R23        1.82094  -0.00434   0.00416  -0.01554  -0.01138   1.80955
    A1        1.92366   0.00418  -0.00716   0.04247   0.03530   1.95896
    A2        1.92221   0.00342  -0.00707   0.03842   0.03133   1.95354
    A3        1.90249  -0.00018   0.00611  -0.00842  -0.00225   1.90023
    A4        1.92178  -0.00282   0.00119  -0.03002  -0.02958   1.89220
    A5        1.89723  -0.00284   0.00329  -0.02396  -0.02090   1.87633
    A6        1.89596  -0.00191   0.00375  -0.02009  -0.01657   1.87939
    A7        1.87384  -0.00123   0.00059  -0.00668  -0.00609   1.86775
    A8        2.07404   0.01561   0.01096   0.02352   0.03196   2.10601
    A9        2.16269  -0.01892  -0.02985   0.00914  -0.02307   2.13962
   A10        2.04596   0.00334   0.01894  -0.02926  -0.01256   2.03341
   A11        2.14737  -0.01706  -0.03287  -0.00812  -0.04173   2.10563
   A12        1.84901   0.00295   0.00513  -0.02285  -0.01929   1.82971
   A13        1.82962   0.00562   0.01437  -0.00672   0.00791   1.83754
   A14        1.87073   0.00333   0.01450  -0.02665  -0.01378   1.85695
   A15        1.86061   0.00602   0.00723   0.01302   0.02008   1.88069
   A16        1.89646   0.00041  -0.00728   0.06486   0.05804   1.95450
   A17        1.94395   0.00038   0.01787  -0.03111  -0.01309   1.93086
   A18        1.93824  -0.00063   0.00377  -0.02337  -0.01870   1.91954
   A19        1.91930  -0.00676  -0.02077   0.00733  -0.01295   1.90635
   A20        1.87624  -0.00055   0.00029   0.01668   0.01700   1.89324
   A21        1.88012   0.00670   0.00945   0.01503   0.02373   1.90385
   A22        1.90434   0.00126  -0.01175   0.01755   0.00547   1.90981
   A23        1.94246  -0.00021   0.00240  -0.00095   0.00132   1.94378
   A24        1.91362  -0.00061   0.00472  -0.01847  -0.01378   1.89983
   A25        1.90467  -0.00113   0.00352  -0.00809  -0.00488   1.89979
   A26        1.88333  -0.00026   0.00025  -0.00162  -0.00123   1.88210
   A27        1.86206   0.00432  -0.02014   0.06429   0.04412   1.90618
   A28        1.95761  -0.00200   0.00812  -0.03332  -0.02519   1.93242
   A29        1.90632  -0.00150   0.00828  -0.02547  -0.01727   1.88905
   A30        1.93961  -0.00276   0.00324  -0.02391  -0.02075   1.91886
   A31        1.86878  -0.00099   0.00758  -0.01862  -0.01100   1.85779
   A32        1.91129   0.00052  -0.00007   0.00038  -0.00004   1.91125
   A33        1.92798   0.00226  -0.01195   0.03872   0.02678   1.95476
   A34        1.90964   0.00245  -0.00764   0.02904   0.02130   1.93094
   A35        1.87381   0.00169  -0.00143   0.01040   0.00897   1.88277
   A36        1.89801   0.00009  -0.00427   0.00874   0.00447   1.90248
   A37        1.89641   0.00000  -0.00303   0.00596   0.00293   1.89934
   A38        1.89724  -0.00092  -0.00347   0.00270  -0.00078   1.89647
    D1        1.05956   0.00073  -0.00308   0.00483   0.00187   1.06142
    D2       -1.06427  -0.00074   0.00426  -0.01084  -0.00670  -1.07097
    D3        3.14045  -0.00034   0.00029  -0.00414  -0.00386   3.13659
    D4       -0.03572  -0.00045   0.00154  -0.02214  -0.02143  -0.05715
    D5        3.07121   0.00048   0.01666   0.09699   0.11448  -3.09749
    D6        2.06155   0.00281  -0.00151   0.01010   0.00747   2.06902
    D7       -1.11470   0.00374   0.01361   0.12922   0.14338  -0.97132
    D8       -2.13048  -0.00335   0.00420  -0.05178  -0.04813  -2.17861
    D9        0.97646  -0.00242   0.01932   0.06735   0.08778   1.06424
   D10        0.01239   0.00181  -0.00958  -0.03921  -0.04789  -0.03550
   D11        2.16825  -0.00379  -0.00934  -0.10552  -0.11362   2.05464
   D12       -2.11089   0.00038  -0.00859  -0.04529  -0.05323  -2.16411
[...]
 1176,-0.00004046,-0.00024305,-0.00013896,0.00006029,-0.00004169,-0.000
 03581,0.00002716,0.00016301,-0.00010564,0.00008785,0.00020366,0.000010
 00,-0.00000037,0.00001854,-0.00000601,0.07549660,0.00007045,-0.0016677
 5,-0.00028145,0.00009028,0.00070400,0.00017825,-0.00006258,0.00000918,
 -0.00010802,0.00039063,0.00132164,0.00032568,0.00007222,0.00003171,0.0
 0001904,-0.00204930,-0.00767099,-0.00092496,-0.00079864,0.00086017,-0.
 00122848,-0.06575954,-0.27444129,-0.01507582,-0.00319997,-0.00788933,0
 .00080843,-0.00034013,-0.00084369,-0.00078168,0.00007491,-0.00017965,-
 0.00001218,-0.00001480,0.00002244,-0.00003305,0.00001845,0.00009557,-0
 .00001013,-0.00000033,0.00013593,0.00003166,0.00000522,0.00001782,0.00
 000924,0.06193424,0.30695904,0.00094977,0.00198871,-0.00059458,0.00036
 702,0.00009554,0.00006522,-0.00001202,0.00008503,0.00003699,-0.0008042
 8,0.00061151,-0.00125249,0.00031597,-0.00028959,0.00002679,-0.00786483
 ,-0.03052579,0.00395655,0.00279659,-0.00070564,-0.00678516,-0.00757363
 ,-0.02099943,-0.04913141,0.00970856,0.02063114,0.00129318,-0.00002178,
 0.00144805,0.00111338,0.00002302,0.00016618,0.00018514,-0.00008854,0.0
 0002904,0.00004614,-0.00005783,-0.00015246,0.00012717,-0.00011212,-0.0
 0020783,-0.00000858,-0.00000159,-0.00002300,0.00000527,0.00556920,0.01
 208805,0.05292205,0.00225179,-0.00262263,-0.00002629,-0.00085066,0.000
 47178,-0.00217670,0.00008792,-0.00007731,-0.00017905,-0.00021455,-0.00
 009982,-0.00011014,0.00017118,-0.00017227,0.00068449,-0.02160253,0.014
 71819,-0.01573257,0.00622563,0.00052756,0.00531226,-0.14888656,0.05405
 332,-0.05988110,-0.03115980,0.02439564,-0.01578828,0.00038918,0.000400
 35,-0.00118724,0.00020039,-0.00005016,-0.00093406,0.00014547,0.0000702
 2,-0.00011461,0.00003392,-0.00002350,0.00002879,0.00004385,0.00008719,
 0.00095020,-0.00004746,0.00004123,-0.00012043,-0.00034612,0.01130854,-
 0.00451566,0.23939647,-0.00086547,0.00237984,-0.00041324,0.00073172,0.
 00018206,0.00113063,-0.00008207,0.00009990,0.00014904,-0.00025593,0.00
 104451,-0.00046872,-0.00004578,-0.00010183,-0.00056143,0.00856465,-0.0
 0732343,0.00258753,-0.00956042,0.00509598,-0.01215369,0.07550149,-0.12
 683004,0.03313334,0.00947966,-0.00338879,0.00122000,0.00154249,-0.0002
 4306,0.00050657,-0.00021434,-0.00060114,0.00044529,0.00001198,-0.00000
 826,-0.00002785,0.00010824,0.00024953,-0.00010540,0.00006362,0.0002671
 3,-0.00052355,0.00004981,-0.00007309,0.00002824,0.03462776,-0.01897822
 ,0.01651057,-0.17847931,0.37627244,0.00240023,-0.00444124,-0.00302130,
 -0.00224382,0.00131587,-0.00261421,0.00021895,-0.00001651,-0.00054117,
 0.00011705,0.00047662,-0.00022592,-0.00013137,-0.00009894,-0.00030828,
 -0.03351609,0.01549776,-0.03117615,-0.01029422,0.00743666,-0.00718895,
 -0.03364340,-0.00060736,-0.10278773,0.00528116,-0.00752245,0.00898902,
 -0.00247545,-0.00022866,-0.00273155,0.00112795,0.00012655,0.00118189,0
 .00045948,0.00004066,-0.00030472,-0.00011635,-0.00008668,0.00001934,-0
 .00015711,-0.00021344,0.00005805,-0.00002682,0.00008478,0.00017993,0.0
 0042196,0.00179162,0.00263576,0.04301726,0.19016740,0.37684671,0.00065
 797,0.00007529,-0.00027114,0.00008409,-0.00009746,0.00055117,0.0000146
 1,-0.00005122,-0.00007691,0.00002990,-0.00015269,0.00009685,0.00008686
 ,-0.00009779,0.00032002,-0.00216404,0.00776196,-0.00189267,-0.00080596
 ,-0.00402587,0.00497041,-0.01346782,0.02785701,0.02014851,-0.00216546,
 0.00379345,-0.00161055,0.00013630,0.00026433,-0.00005636,-0.00000189,0
 .00003195,0.00013582,0.00000241,0.00000312,-0.00002810,-0.00001286,-0.
 00004358,0.00002550,0.00002876,-0.00006566,-0.00023034,-0.00001010,0.0
 0000556,0.00002840,-0.00130983,-0.00077392,-0.00020183,-0.03681566,0.0
 5381627,0.02056297,0.05881895,0.00137393,-0.00177284,-0.00059074,-0.00
 056919,0.00030572,-0.00069989,0.00000441,0.00002234,-0.00019083,0.0001
 7942,-0.00011491,0.00013385,0.00012432,-0.00018752,0.00023524,0.000513
 45,0.00203708,-0.00063091,-0.00193896,-0.00331766,-0.00014783,0.013528
 69,-0.02745181,-0.00947271,-0.00027254,-0.00015811,0.00008429,-0.00026
 796,-0.00029522,0.00025609,-0.00001098,0.00030603,-0.00020558,-0.00010
 502,-0.00001264,0.00007374,0.00000421,-0.00006059,0.00001935,-0.000063
 77,-0.00003934,0.00021317,0.00000020,0.00001665,-0.00001385,0.00392134
 ,-0.00218046,0.00082107,0.07248527,-0.23300986,-0.20011669,-0.08715074
 ,0.26520227,0.00109207,-0.00319325,-0.00022393,-0.00017629,0.00024345,
 -0.00003568,-0.00004968,-0.00011661,-0.00027927,0.00032990,-0.00073762
 ,0.00057607,0.00017914,-0.00010428,0.00075644,-0.01122398,0.01258577,0
 .00030959,0.00788026,-0.00383530,0.00098915,0.00377610,0.01016059,0.01
 383316,-0.00090788,-0.00079728,-0.00192534,0.00070432,0.00018002,-0.00
 071005,-0.00001741,-0.00030727,-0.00006251,-0.00001170,0.00004299,-0.0
 0001442,0.00005911,0.00008988,-0.00003218,-0.00003108,0.00012101,0.000
 04969,0.00002806,-0.00003385,-0.00003624,-0.00339610,0.00363991,-0.002
 83225,0.04581278,-0.22958584,-0.23971264,-0.04304493,0.21106689,0.2292
 4845,-0.00021475,-0.00028950,0.00013294,0.00011379,0.00000575,0.000033
 80,-0.00002275,0.00000453,0.00003140,0.00004473,0.00010929,0.00003308,
 0.00004499,0.00014848,0.00007776,0.00065428,-0.00203681,-0.00210909,-0
 .00027100,0.00139706,0.00015475,-0.00891016,-0.02565944,0.00295395,-0.
 06671492,-0.07449159,-0.00834896,-0.00028332,-0.00530054,0.00242192,0.
 00055196,0.00017391,0.00039605,-0.00000204,0.00018919,-0.00022304,0.00
 018990,0.00013865,0.00002970,-0.00017917,0.00003530,-0.00006062,0.0000
 0971,0.00004392,0.00003734,-0.00380844,-0.00017516,0.00301071,0.003549
 08,0.00184964,-0.00079445,-0.00082824,-0.00022407,0.00042185,0.0772723
 1,-0.00007631,-0.00018378,0.00003527,0.00003475,0.00015393,0.00016932,
 -0.00002877,-0.00003037,-0.00001249,0.00011767,0.00010361,-0.00001290,
 0.00003416,-0.00018491,-0.00012196,0.00003280,-0.00083053,-0.00134451,
 -0.00052547,0.00120484,0.00078397,-0.00229087,-0.00717418,0.00131202,-
 0.06605170,-0.28063865,-0.01998822,-0.00221238,-0.00675756,-0.00084047
 ,-0.00021252,-0.00057065,0.00083122,0.00009154,-0.00012366,-0.00015103
 ,0.00017983,0.00078200,-0.00032863,0.00003365,0.00054519,0.00005990,0.
 00005971,0.00003638,-0.00002771,-0.00028605,0.00053554,0.00085104,-0.0
 0031774,0.00261420,-0.00087736,-0.00045889,-0.00009443,0.00021487,0.06
 467672,0.31083223,0.00016533,-0.00000267,-0.00015711,-0.00010286,-0.00
 006658,-0.00003456,0.00003392,0.00001896,-0.00003925,-0.00006995,-0.00
 014768,0.00011326,-0.00006821,0.00010091,-0.00000441,0.00038147,0.0030
 3782,0.00146193,-0.00014860,-0.00116321,0.00002808,0.00899440,0.019712
 28,-0.00104804,-0.00576166,-0.02211810,-0.05442265,-0.00650273,-0.0283
 1523,0.00222873,0.00038869,-0.00140720,0.00037052,0.00030706,0.0000892
 2,-0.00008938,0.00005692,0.00043988,-0.00069295,-0.00005007,0.00076046
 ,0.00075050,0.00007837,0.00003853,0.00004409,0.00327539,0.00073805,-0.
 00204195,-0.00209657,-0.00145342,0.00031706,0.00033210,0.00008787,0.00
 016881,0.00447811,0.01831810,0.05873184,0.00007326,-0.00027248,0.00162
 050,0.00062136,0.00009918,0.00097795,-0.00027564,-0.00006390,0.0001528
 0,0.00028764,0.00021911,0.00023183,-0.00108941,0.00048854,0.00161735,0
 .00032298,-0.00130797,-0.00590235,-0.00005780,0.00131742,0.00238064,-0
 .02710153,0.02473216,-0.01325565,-0.15357180,0.03347992,-0.04921497,-0
 .02189062,0.01244966,-0.01574589,-0.00415034,-0.00067569,0.00072024,0.
 00253825,-0.00004349,-0.00062974,0.00038493,-0.00046927,0.00016114,0.0
 0219441,-0.00026148,0.00010451,-0.00001381,0.00017964,-0.00057170,0.00
 320507,-0.00082981,-0.00145029,-0.01040432,0.00396127,0.00540386,-0.00
 214005,-0.00131673,-0.00149476,0.00087069,0.00671498,-0.00118579,0.247
 67423,0.00095267,0.00074579,-0.00076724,-0.00068774,0.00068293,0.00011
 817,0.00002800,-0.00006631,-0.00026828,0.00076350,0.00021453,-0.000487
 88,-0.00031683,-0.00170598,-0.00005312,0.00139622,0.00006213,0.0037563
 0,-0.00038297,-0.00009562,-0.00126987,0.00633098,-0.00271866,-0.002075
 65,0.06808658,-0.12590051,0.02517809,0.00634756,-0.00640962,0.00532678
 ,0.00135090,0.00003616,-0.00109800,-0.00016883,-0.00036497,0.00015474,
 0.00014748,0.00052805,-0.00029863,-0.00027629,0.00121534,0.00089818,0.
 00003357,0.00003216,0.00014331,0.00139630,0.00240693,-0.00136466,0.003
 06412,0.00178552,-0.00009535,-0.00042517,0.00061212,0.00055712,0.03583
 488,-0.01992710,0.01398756,-0.05950782,0.52303747,-0.00224775,-0.00053
 626,-0.00168914,0.00226064,-0.00104770,-0.00349533,0.00005587,-0.00016
 613,0.00080600,0.00010034,0.00033126,0.00020389,0.00459985,0.00025247,
 -0.00330957,-0.00452008,0.00091287,-0.00262094,0.00143652,-0.00042281,
 0.00107279,0.00270541,-0.00766457,0.01231467,-0.03047877,-0.00397638,-
 0.08885446,-0.03741301,0.02016576,-0.01861583,0.00038478,0.00094895,0.
 00273510,-0.00142683,0.00001537,-0.00079138,-0.00068721,0.00045073,-0.
 00066301,-0.00036503,-0.00042213,-0.00194247,0.00013121,-0.00005149,0.
 00048197,-0.00078271,-0.00054776,0.00002248,0.00582807,-0.00047806,0.0
 0017421,0.00012092,-0.00012727,-0.00004152,0.00223464,-0.00064166,0.00
 295391,0.11113369,0.16614766,0.22634775,0.00001920,0.00037805,0.000285
 05,-0.00010524,-0.00013418,-0.00025856,0.00005741,-0.00001421,0.000025
 94,-0.00002092,-0.00010882,0.00002957,0.00002010,-0.00007394,0.0001977
 1,0.00006688,0.00024942,0.00051113,0.00006757,-0.00033247,-0.00030663,
 -0.00017480,0.00288260,-0.00073503,-0.00131612,0.03629996,0.01381351,0
 .00006993,0.00535836,-0.00216698,0.00118179,-0.00016213,0.00047931,-0.
 00053477,-0.00030812,0.00024932,-0.00043229,-0.00010790,0.00010687,-0.
 00063096,-0.00034134,-0.00004584,0.00007476,-0.00023568,0.00006361,-0.
 00108699,-0.00063138,0.00050336,-0.00114732,-0.00092279,-0.00015126,0.
 00007633,-0.00005320,0.00003367,-0.00295899,0.00123953,-0.00146396,-0.
 04024647,-0.05503861,-0.04599270,0.04791922,0.00003427,0.00009315,0.00
 003350,-0.00014294,-0.00004024,0.00046337,0.00001283,0.00006922,-0.000
 06119,-0.00017211,-0.00004265,0.00009069,0.00008581,0.00023611,-0.0009
 2856,0.00001677,-0.00057589,-0.00062264,-0.00008631,0.00037253,0.00025
 642,0.00009046,0.00103471,-0.00044450,0.00491281,-0.03048265,-0.005376
 42,-0.00024573,0.00147689,-0.00077962,0.00007765,-0.00042050,0.0011738
 6,-0.00060252,-0.00029604,0.00070000,-0.00025876,0.00008633,-0.0000542
 1,-0.00011435,-0.00047584,-0.00086433,0.00002256,-0.00001121,0.0000288
 9,0.00015931,-0.00001607,-0.00012561,-0.00110669,0.00059799,0.00010517
 ,-0.00011720,-0.00008776,-0.00001929,0.00424430,-0.00091591,0.00085871
 ,-0.01958555,-0.37795709,-0.17138804,0.01392468,0.41090421,-0.00005545
 ,-0.00003389,-0.00090216,-0.00007121,0.00039823,0.00044467,-0.00002242
 ,-0.00005366,-0.00017132,0.00049676,0.00022873,-0.00020969,-0.00002783
 ,-0.00094132,-0.00031353,0.00047927,-0.00090149,-0.00011825,-0.0004167
 0,0.00059662,-0.00009163,-0.00003046,-0.00109939,-0.00041030,0.0023626
 0,0.01323328,0.00884433,-0.00372676,0.00844158,-0.00061881,-0.00046380
 ,-0.00000359,-0.00101880,0.00042382,0.00058264,-0.00017129,0.00004262,
 -0.00055736,0.00049848,0.00011742,-0.00061588,0.00044395,-0.00001023,-
 0.00001780,-0.00029092,0.00045923,0.00024031,0.00037815,-0.00081239,0.
 00063683,-0.00029576,0.00001054,0.00006203,-0.00003047,-0.00363546,0.0
 0347996,-0.00188024,-0.03101602,-0.19889864,-0.11434047,0.03148246,0.1
 7834791,0.11020542,-0.00000774,-0.00004789,0.00004996,0.00000851,-0.00
 000821,-0.00006702,-0.00000581,-0.00000614,0.00001085,0.00000575,-0.00
 000529,0.00000506,0.00002314,-0.00000138,0.00004390,-0.00022814,0.0002
 9619,-0.00016877,0.00017889,-0.00005659,0.00022535,-0.00057950,0.00054
 454,-0.00010148,-0.00466280,0.00177523,-0.00235973,-0.26416508,0.07410
 566,-0.06382243,-0.02354482,0.00509985,-0.00628359,-0.00166223,-0.0016
 2209,0.00281317,0.00062163,-0.00043982,0.00008819,0.00205369,0.0001938
 0,-0.00019290,0.00044942,-0.00010300,-0.00010719,0.00014022,-0.0000020
 3,-0.00013368,-0.00118434,0.00008647,0.00346893,-0.00021884,0.00004924
 ,0.00017769,0.00007195,-0.00023871,-0.00033957,0.00075567,-0.00046969,
 -0.00044247,-0.00000289,-0.00026209,0.00031897,0.28314474,-0.00000351,
 0.00002834,0.00002191,0.00004646,-0.00000116,0.00001030,-0.00000676,-0
 .00000597,0.00000709,0.00000420,0.00001430,-0.00001189,0.00001247,-0.0
 0001058,0.00003467,-0.00013648,-0.00025269,-0.00007659,-0.00005075,0.0
 0005349,-0.00000081,0.00088853,0.00064564,0.00041256,-0.00571139,0.004
 73751,0.00241305,0.07117242,-0.07231954,0.02003200,-0.01353414,0.00525
 408,-0.00361782,-0.00253497,0.00008292,0.00251970,0.00019891,0.0007066
 2,-0.00075740,0.00118398,0.00031363,-0.00002499,-0.00002178,-0.0000502
 0,-0.00025880,0.00014717,-0.00014321,-0.00001077,0.00052622,-0.0005032
 8,-0.00113418,0.00000948,-0.00002632,-0.00027904,0.00019877,-0.0000610
 2,0.00090559,-0.00094420,0.00174532,-0.00284848,-0.00070443,-0.0013865
 9,-0.00127921,-0.08150440,0.09424719,-0.00010380,0.00001075,0.00018846
 ,0.00018783,-0.00006508,0.00001108,-0.00002207,-0.00001278,0.00005459,
 -0.00000368,-0.00000550,0.00003528,0.00003293,0.00005283,0.00029780,-0
 .00043327,0.00016711,-0.00018867,0.00042864,-0.00011894,0.00056559,-0.
 00210264,0.00220976,-0.00056976,-0.02739928,0.01041652,-0.00567684,-0.
 05999171,0.02076985,-0.07143281,0.02170540,-0.00478154,0.00503167,0.00
 296873,0.00108898,-0.00261238,-0.00085113,-0.00029660,0.00083030,-0.00
 156453,-0.00006129,0.00187836,-0.00033393,0.00021274,0.00029847,0.0003
 1734,-0.00008918,-0.00002709,0.00109845,-0.00019786,0.00011468,0.00024
 269,-0.00079342,-0.00011792,0.00020389,-0.00078675,0.00000973,-0.00283
 347,-0.00016809,-0.00783100,0.00033426,-0.00066190,0.00061062,0.064887
 95,-0.02577183,0.07422571,-0.00019510,-0.00010649,0.00010023,0.0002257
 7,-0.00000988,-0.00002786,-0.00005070,-0.00003282,0.00006014,0.0000124
 3,0.00003866,0.00000627,0.00009003,-0.00002618,0.00018315,-0.00012239,
 0.00046736,-0.00062390,0.00018448,-0.00007730,0.00051995,-0.00052276,0
 .00026109,-0.00008763,-0.00283964,-0.00156977,-0.00419749,-0.06911574,
 0.01288486,0.00553143,0.00245910,-0.02830868,0.00089300,0.00341757,0.0
 0054710,-0.00194490,-0.00265373,-0.00282423,0.00465941,0.00208277,-0.0
 0240034,0.00126424,0.00037190,-0.00007518,-0.00062006,0.00007181,0.000
 55609,-0.00025210,0.00024593,0.00006323,0.00114770,0.00002670,-0.00026
 791,-0.00016987,0.00079642,-0.00022790,-0.00020831,0.00286337,-0.00576
 583,-0.00538430,-0.00327180,-0.00134487,0.00275572,0.00902076,0.029868
 96,0.00248791,0.07298531,-0.00033809,-0.00012507,0.00022287,-0.0000613
 0,0.00013446,-0.00042942,-0.00001646,-0.00007141,0.00003750,0.00009748
 ,0.00006401,-0.00011635,0.00002349,-0.00006976,-0.00000141,0.00066820,
 0.00053608,0.00143542,-0.00021542,-0.00007634,-0.00062625,-0.00058250,
 -0.00098781,0.00054815,-0.00362949,-0.02935572,-0.01167673,0.00346295,
 -0.19463519,0.02615162,-0.00537781,-0.04444133,0.00149403,-0.00037192,
 0.00200167,-0.00051120,-0.00431094,-0.00034227,0.00452665,0.00093368,0
 .00391023,-0.00078349,0.00070584,0.00011729,-0.00112308,0.00052122,0.0
 0069375,-0.00063962,0.00089032,0.00029677,-0.00167587,-0.00019464,0.00
 031310,0.00015979,-0.00040117,0.00090196,-0.00249480,0.00063973,0.0009
 7537,-0.00044607,0.00040518,-0.00197672,-0.00097788,0.00208393,-0.0326
 8171,-0.00102700,-0.01335776,0.35769909,-0.00010989,0.00016758,0.00052
 991,0.00002491,-0.00015045,-0.00076627,0.00001877,-0.00001819,0.000143
 42,0.00000908,-0.00003209,-0.00003106,0.00015812,-0.00008717,0.0002149
 6,-0.00052716,0.00012421,0.00164426,0.00048034,-0.00047556,-0.00064882
 ,-0.00088024,0.00088911,0.00092459,-0.00599927,-0.04273859,-0.00911821
 ,0.00147011,-0.01990865,-0.09331410,-0.00014444,0.02021504,-0.00290868
 ,-0.00021022,-0.00048344,0.00062039,0.00350466,0.00176005,-0.00193391,
 0.00342580,0.00682396,-0.00285919,-0.00035472,0.00257934,0.00099989,-0
 .00008206,-0.00080719,-0.00001232,0.00115973,-0.00066250,0.00023970,-0
 .00018892,0.00001869,0.00012967,-0.00161963,-0.00134659,-0.00701996,-0
 .00169074,-0.00924351,-0.00375778,0.00274007,-0.00033812,0.00062217,0.
 00223202,0.00812760,0.00434180,-0.06777572,0.10431586,0.58106952,-0.00
 001868,0.00004048,0.00004818,-0.00001560,-0.00003182,-0.00007300,0.000
 01534,0.00000397,0.00000867,0.00000927,-0.00000794,0.00000025,0.000028
 41,-0.00001001,0.00002440,-0.00001951,0.00007525,-0.00006930,-0.000071
 95,0.00003055,0.00002185,0.00011753,-0.00016381,0.00041295,-0.00169908
 ,-0.00120064,-0.00180933,0.00081973,0.00170877,0.00060378,0.00130250,-
 0.00387126,-0.00255772,-0.00056391,-0.00029402,0.00006500,0.00002556,0
 .00079865,0.00009710,-0.00191423,0.00305648,-0.00041487,-0.00059923,-0
 .00029994,0.00039303,0.00012148,0.00011654,-0.00015400,-0.00008148,-0.
 00003220,-0.00007715,-0.00002214,0.00005659,0.00002873,0.00002396,-0.0
 0028800,-0.00049348,-0.00085008,-0.00269299,-0.00125107,0.00237637,0.0
 0045767,0.00133934,-0.00021218,0.00089524,0.00074348,-0.01608251,0.018
 42549,0.06435940,0.01731040,0.00003033,-0.00001115,-0.00005498,-0.0000
 0361,0.00001097,0.00014898,0.00000033,0.00001287,-0.00002337,-0.000001
 53,0.00000965,-0.00000809,-0.00001529,-0.00000829,-0.00005393,-0.00002
 738,-0.00011869,-0.00040572,-0.00005938,0.00019502,0.00023846,-0.00023
 948,-0.00021168,0.00084486,0.00022171,-0.00874920,0.00067903,0.0050012
 3,-0.01889949,-0.04421983,-0.00182282,-0.00306858,-0.00382749,-0.00003
 796,0.00004917,0.00051668,0.00050661,0.00075586,-0.00019584,0.00156655
 ,-0.00020042,-0.00122957,0.00017305,0.00231944,0.00061398,0.00033853,0
 .00021694,-0.00028151,-0.00009052,0.00017514,0.00007164,0.00003642,-0.
 00000585,-0.00005265,-0.00047215,-0.00021713,-0.00192505,0.00099676,0.
 00106607,0.00153974,-0.00156857,-0.00018595,-0.00086798,0.00053243,-0.
 00038676,-0.00009078,0.01170779,-0.06288044,-0.06872941,-0.01677306,0.
 09013250,-0.00001726,-0.00003535,-0.00011483,0.00002010,0.00004478,0.0
 0018096,-0.00000909,-0.00000644,-0.00003154,0.00001177,0.00001657,-0.0
 0000020,-0.00000870,-0.00000770,-0.00004880,0.00000091,-0.00014043,-0.
 00035811,-0.00006076,0.00019632,0.00022076,-0.00003200,0.00007293,0.00
 008373,0.00039716,0.00000217,-0.00020928,-0.00107189,-0.00420248,-0.00
 104096,0.00103331,0.00454643,0.00418452,-0.00038596,-0.00052472,-0.000
 63254,0.00006176,-0.00049446,-0.00173628,-0.00085584,-0.00052298,-0.00
 156186,0.00005015,-0.00139686,-0.00058644,0.00000249,0.00002967,-0.000
 12845,-0.00021694,0.00011612,0.00015202,0.00005584,-0.00008255,-0.0000
 0661,0.00013937,0.00042459,0.00025205,0.00048689,-0.00017898,0.0008400
 9,0.00026512,-0.00039409,-0.00118415,-0.00030321,0.00158735,-0.0000376
 8,0.06168300,-0.11636272,-0.46910997,-0.06124622,0.11731282,0.47087357
 \\-0.00002191,-0.00001753,0.00000531,0.00000302,-0.00001068,-0.0000028
 3,0.00000140,-0.00000370,-0.00000373,0.00000253,0.00000538,0.00000176,
 0.00000347,0.00000946,-0.00000684,-0.00000184,-0.00000836,0.00000265,0
 .00000774,0.00000670,-0.00000087,0.00005901,-0.00000887,0.00001096,0.0
 0001615,-0.00001426,0.00004508,-0.00002369,-0.00001443,-0.00001858,-0.
 00000892,-0.00002124,-0.00001351,0.00000143,0.00000355,0.00000146,0.00
 000344,0.00000476,0.00000449,0.00000935,0.00000787,0.00001571,-0.00000
 558,0.00000372,-0.00000661,-0.00001164,0.00000340,0.00000476,-0.000030
 51,0.00002678,-0.00000787,0.00000724,-0.00000862,-0.00000222,-0.000005
 43,0.00000152,-0.00000408,-0.00001058,0.00000413,-0.00002553,-0.000000
 76,-0.00000396,-0.00000639,0.00000179,0.00000526,0.00000214,0.00000083
 ,0.00002603,0.00000702,0.00000347,0.00000310,-0.00000229\\\@


 THE SCIENTIFIC THEORIST IS NOT TO BE ENVIED. FOR NATURE, OR MORE
 PRECISELY EXPERIMENT, IS AN INEXORABLE AND NOT VERY FRIENDLY JUDGE OF HIS
 WORK.  IT NEVER SAYS "YES" TO A THEORY. IN THE MOST FAVORABLE CASES
 IT SAYS "MAYBE", AND IN THE GREAT MAJORITY OF CASES SIMPLY "NO"...
 PROBABLY EVERY THEORY WILL SOME DAY EXPERIENCE ITS "NO" - MOST
 THEORIES, SOON AFTER CONCEPTION.  -- A.EINSTEIN, NOV 11, 1922.
 Job cpu time:  0 days  0 hours 25 minutes 39.1 seconds.
 File lengths (MBytes):  RWF=    219 Int=      0 D2E=      0 Chk=      7 Scr=      1
 Normal termination of Gaussian 09 at Tue Jan 23 02:56:04 2018.
