 Entering Gaussian System, Link 0=g09
 Input=Base-Fructuose.inp
 Output=Base-Fructuose.log
 Initial command:
 /usr/local/g09/l1.exe /home/g09scr/Gau-6642.inp -scrdir=/home/g09scr/
 Entering Link 1 = /usr/local/g09/l1.exe PID=      6644.
  
 Copyright (c) 1988,1990,1992,1993,1995,1998,2003,2009,2010,
            Gaussian, Inc.  All Rights Reserved.
  
 This is part of the Gaussian(R) 09 program.  It is based on
 the Gaussian(R) 03 system (copyright 2003, Gaussian, Inc.),
 the Gaussian(R) 98 system (copyright 1998, Gaussian, Inc.),
 the Gaussian(R) 94 system (copyright 1995, Gaussian, Inc.),
 the Gaussian 92(TM) system (copyright 1992, Gaussian, Inc.),
 the Gaussian 90(TM) system (copyright 1990, Gaussian, Inc.),
 the Gaussian 88(TM) system (copyright 1988, Gaussian, Inc.),
 the Gaussian 86(TM) system (copyright 1986, Carnegie Mellon
 University), and the Gaussian 82(TM) system (copyright 1983,
 Carnegie Mellon University). Gaussian is a federally registered
 trademark of Gaussian, Inc.
  
 This software contains proprietary and confidential information,
 including trade secrets, belonging to Gaussian, Inc.
  
 This software is provided under written license and may be
 used, copied, transmitted, or stored only in accord with that
 written license.
  
 The following legend is applicable only to US Government
 contracts under FAR:
  
                    RESTRICTED RIGHTS LEGEND
  
 Use, reproduction and disclosure by the US Government is
 subject to restrictions as set forth in subparagraphs (a)
 and (c) of the Commercial Computer Software - Restricted
 Rights clause in FAR 52.227-19.
  
 Gaussian, Inc.
 340 Quinnipiac St., Bldg. 40, Wallingford CT 06492
  
  
 ---------------------------------------------------------------
 Warning -- This program may not be used in any manner that
 competes with the business of Gaussian, Inc. or will provide
 assistance to any competitor of Gaussian, Inc.  The licensee
 of this program is prohibited from giving any competitor of
 Gaussian, Inc. access to this program.  By using this program,
 the user acknowledges that Gaussian, Inc. is engaged in the
 business of creating and licensing software in the field of
 computational chemistry and represents and warrants to the
 licensee that it is not a competitor of Gaussian, Inc. and that
 it will not use this program in any manner prohibited above.
 ---------------------------------------------------------------
  

 Cite this work as:
 Gaussian 09, Revision B.01,
 M. J. Frisch, G. W. Trucks, H. B. Schlegel, G. E. Scuseria, 
 M. A. Robb, J. R. Cheeseman, G. Scalmani, V. Barone, B. Mennucci, 
 G. A. Petersson, H. Nakatsuji, M. Caricato, X. Li, H. P. Hratchian, 
 A. F. Izmaylov, J. Bloino, G. Zheng, J. L. Sonnenberg, M. Hada, 
 M. Ehara, K. Toyota, R. Fukuda, J. Hasegawa, M. Ishida, T. Nakajima, 
 Y. Honda, O. Kitao, H. Nakai, T. Vreven, J. A. Montgomery, Jr., 
 J. E. Peralta, F. Ogliaro, M. Bearpark, J. J. Heyd, E. Brothers, 
 K. N. Kudin, V. N. Staroverov, T. Keith, R. Kobayashi, J. Normand, 
 K. Raghavachari, A. Rendell, J. C. Burant, S. S. Iyengar, J. Tomasi, 
 M. Cossi, N. Rega, J. M. Millam, M. Klene, J. E. Knox, J. B. Cross, 
 V. Bakken, C. Adamo, J. Jaramillo, R. Gomperts, R. E. Stratmann, 
 O. Yazyev, A. J. Austin, R. Cammi, C. Pomelli, J. W. Ochterski, 
 R. L. Martin, K. Morokuma, V. G. Zakrzewski, G. A. Voth, 
 P. Salvador, J. J. Dannenberg, S. Dapprich, A. D. Daniels, 
 O. Farkas, J. B. Foresman, J. V. Ortiz, J. Cioslowski, 
 and D. J. Fox, Gaussian, Inc., Wallingford CT, 2010.
 
 ******************************************
 Gaussian 09:  EM64L-G09RevB.01 12-Aug-2010
                22-Jan-2018 
 ******************************************
 %nproc=4
 Will use up to    4 processors via shared memory.
 %mem=60gb
 ------------------------------
 #B3LYP/6-311G** fopt test freq
 ------------------------------
 1/14=-1,18=20,19=15,26=3,38=1/1,3;
 2/9=110,12=2,14=103,17=6,18=5,40=1/2;
 3/5=4,6=6,7=101,11=2,16=1,25=1,30=1,71=1,74=-5/1,2,3;
 4//1;
 5/5=2,38=5/2;
 6/7=2,8=2,9=2,10=2,28=1/1;
 7//1,2,3,16;
 1/14=-1,18=20,19=15/3(2);
 2/9=110/2;
 99//99;
 2/9=110/2;
 3/5=4,6=6,7=101,11=2,16=1,25=1,30=1,71=1,74=-5/1,2,3;
 4/5=5,16=3/1;
 5/5=2,38=5/2;
 7//1,2,3,16;
 1/14=-1,18=20,19=15/3(-5);
 2/9=110/2;
 6/7=2,8=2,9=2,10=2,19=2,28=1/1;
 99/9=1/99;
 -------------------------
 Sugars/Base-Fructuose.xyz
 -------------------------
 Symbolic Z-matrix:
 Charge =  0 Multiplicity = 1
 C                     0.        0.        0. 
 O                     0.        0.        1.41352 
 H                     0.92749   0.        1.70592 
 H                     0.51803  -0.89725  -0.34815 
 H                     0.51786   0.89695  -0.34677 
 C                    -1.42147   0.       -0.52884 
 O                    -2.38889  -0.0311    0.23329 
 C                    -1.59838   0.00492  -2.04619 
 C                    -0.31243  -0.1959   -2.86228 
 C                    -0.49488  -0.21947  -4.39139 
 C                     0.83061  -0.44571  -5.11913 
 H                     1.25656  -1.42295  -4.86871 
 H                     1.55846   0.33828  -4.89309 
 O                     0.59341  -0.42317  -6.52308 
 H                     1.44927  -0.57466  -6.959 
 H                    -2.33159  -0.77202  -2.28778 
 O                    -2.17401   1.25038  -2.42063 
 H                    -1.50696   1.9425   -2.27147 
 H                     0.09873  -1.16858  -2.56265 
 O                     0.66193   0.78014  -2.50533 
 H                     1.539     0.42045  -2.71983 
 H                    -1.07028  -1.09948  -4.69975 
 O                    -1.04624   1.02011  -4.83495 
 H                    -1.89903   1.14607  -4.38497 
 

 GradGradGradGradGradGradGradGradGradGradGradGradGradGradGradGradGradGrad
 Berny optimization.
 Initialization pass.
                           ----------------------------
                           !    Initial Parameters    !
                           ! (Angstroms and Degrees)  !
 --------------------------                            --------------------------
 ! Name  Definition              Value          Derivative Info.                !
 --------------------------------------------------------------------------------
 ! R1    R(1,2)                  1.4135         estimate D2E/DX2                !
 ! R2    R(1,4)                  1.093          estimate D2E/DX2                !
 ! R3    R(1,5)                  1.0922         estimate D2E/DX2                !
 ! R4    R(1,6)                  1.5167         estimate D2E/DX2                !
 ! R5    R(2,3)                  0.9725         estimate D2E/DX2                !
 ! R6    R(6,7)                  1.232          estimate D2E/DX2                !
 ! R7    R(6,8)                  1.5276         estimate D2E/DX2                !
 ! R8    R(8,9)                  1.5362         estimate D2E/DX2                !
 ! R9    R(8,16)                 1.0953         estimate D2E/DX2                !
 ! R10   R(8,17)                 1.4222         estimate D2E/DX2                !
 ! R11   R(9,10)                 1.5401         estimate D2E/DX2                !
 ! R12   R(9,19)                 1.0977         estimate D2E/DX2                !
 ! R13   R(9,20)                 1.4246         estimate D2E/DX2                !
 ! R14   R(10,11)                1.529          estimate D2E/DX2                !
 ! R15   R(10,22)                1.0957         estimate D2E/DX2                !
 ! R16   R(10,23)                1.4273         estimate D2E/DX2                !
 ! R17   R(11,12)                1.0951         estimate D2E/DX2                !
 ! R18   R(11,13)                1.0934         estimate D2E/DX2                !
 ! R19   R(11,14)                1.424          estimate D2E/DX2                !
 ! R20   R(14,15)                0.9724         estimate D2E/DX2                !
 ! R21   R(17,18)                0.9727         estimate D2E/DX2                !
 ! R22   R(20,21)                0.9719         estimate D2E/DX2                !
 ! R23   R(23,24)                0.9724         estimate D2E/DX2                !
 ! A1    A(2,1,4)              108.574          estimate D2E/DX2                !
 ! A2    A(2,1,5)              108.511          estimate D2E/DX2                !
 ! A3    A(2,1,6)              110.407          estimate D2E/DX2                !
 ! A4    A(4,1,5)              110.3838         estimate D2E/DX2                !
 ! A5    A(4,1,6)              109.4597         estimate D2E/DX2                !
 ! A6    A(5,1,6)              109.4917         estimate D2E/DX2                !
 ! A7    A(1,2,3)              107.498          estimate D2E/DX2                !
 ! A8    A(1,6,7)              121.351          estimate D2E/DX2                !
 ! A9    A(1,6,8)              117.057          estimate D2E/DX2                !
 ! A10   A(7,6,8)              121.5748         estimate D2E/DX2                !
 ! A11   A(6,8,9)              115.486          estimate D2E/DX2                !
 ! A12   A(6,8,16)             107.118          estimate D2E/DX2                !
 ! A13   A(6,8,17)             108.1312         estimate D2E/DX2                !
 ! A14   A(9,8,16)             110.516          estimate D2E/DX2                !
 ! A15   A(9,8,17)             108.265          estimate D2E/DX2                !
 ! A16   A(16,8,17)            106.9882         estimate D2E/DX2                !
 ! A17   A(8,9,10)             115.484          estimate D2E/DX2                !
 ! A18   A(8,9,19)             106.5212         estimate D2E/DX2                !
 ! A19   A(8,9,20)             110.4787         estimate D2E/DX2                !
 ! A20   A(10,9,19)            107.567          estimate D2E/DX2                !
 ! A21   A(10,9,20)            109.894          estimate D2E/DX2                !
 ! A22   A(19,9,20)            106.4113         estimate D2E/DX2                !
 ! A23   A(9,10,11)            111.847          estimate D2E/DX2                !
 ! A24   A(9,10,22)            110.7269         estimate D2E/DX2                !
 ! A25   A(9,10,23)            109.938          estimate D2E/DX2                !
 ! A26   A(11,10,22)           101.6812         estimate D2E/DX2                !
 ! A27   A(11,10,23)           108.3891         estimate D2E/DX2                !
 ! A28   A(22,10,23)           114.0277         estimate D2E/DX2                !
 ! A29   A(10,11,12)           111.1251         estimate D2E/DX2                !
 ! A30   A(10,11,13)           111.876          estimate D2E/DX2                !
 ! A31   A(10,11,14)           108.815          estimate D2E/DX2                !
 ! A32   A(12,11,13)           109.4922         estimate D2E/DX2                !
 ! A33   A(12,11,14)           107.721          estimate D2E/DX2                !
 ! A34   A(13,11,14)           107.6593         estimate D2E/DX2                !
 ! A35   A(11,14,15)           107.032          estimate D2E/DX2                !
 ! A36   A(8,17,18)            107.768          estimate D2E/DX2                !
 ! A37   A(9,20,21)            107.96           estimate D2E/DX2                !
 ! A38   A(10,23,24)           107.906          estimate D2E/DX2                !
 ! D1    D(4,1,2,3)             60.0            estimate D2E/DX2                !
 ! D2    D(5,1,2,3)            -60.0            estimate D2E/DX2                !
 ! D3    D(6,1,2,3)            180.0            estimate D2E/DX2                !
 ! D4    D(2,1,6,7)             -1.694          estimate D2E/DX2                !
 ! D5    D(2,1,6,8)            179.793          estimate D2E/DX2                !
 ! D6    D(4,1,6,7)            117.7715         estimate D2E/DX2                !
 ! D7    D(4,1,6,8)            -60.7415         estimate D2E/DX2                !
 ! D8    D(5,1,6,7)           -121.102          estimate D2E/DX2                !
 ! D9    D(5,1,6,8)             60.385          estimate D2E/DX2                !
 ! D10   D(1,6,8,9)              8.5094         estimate D2E/DX2                !
 ! D11   D(1,6,8,16)           132.0862         estimate D2E/DX2                !
 ! D12   D(1,6,8,17)          -112.9186         estimate D2E/DX2                !
 ! D13   D(7,6,8,9)           -170.0            estimate D2E/DX2                !
 ! D14   D(7,6,8,16)           -46.4233         estimate D2E/DX2                !
 ! D15   D(7,6,8,17)            68.5719         estimate D2E/DX2                !
 ! D16   D(6,8,9,10)           178.812          estimate D2E/DX2                !
 ! D17   D(6,8,9,19)            59.463          estimate D2E/DX2                !
 ! D18   D(6,8,9,20)           -55.7099         estimate D2E/DX2                !
 ! D19   D(16,8,9,10)           57.041          estimate D2E/DX2                !
 ! D20   D(16,8,9,19)          -62.308          estimate D2E/DX2                !
 ! D21   D(16,8,9,20)         -177.4809         estimate D2E/DX2                !
 ! D22   D(17,8,9,10)          -59.832          estimate D2E/DX2                !
 ! D23   D(17,8,9,19)         -179.181          estimate D2E/DX2                !
 ! D24   D(17,8,9,20)           65.6461         estimate D2E/DX2                !
 ! D25   D(6,8,17,18)           68.9957         estimate D2E/DX2                !
 ! D26   D(9,8,17,18)          -56.798          estimate D2E/DX2                !
 ! D27   D(16,8,17,18)        -175.9239         estimate D2E/DX2                !
 ! D28   D(8,9,10,11)         -179.0869         estimate D2E/DX2                !
 ! D29   D(8,9,10,22)          -66.447          estimate D2E/DX2                !
 ! D30   D(8,9,10,23)           60.45           estimate D2E/DX2                !
 ! D31   D(19,9,10,11)         -60.315          estimate D2E/DX2                !
 ! D32   D(19,9,10,22)          52.325          estimate D2E/DX2                !
 ! D33   D(19,9,10,23)         179.222          estimate D2E/DX2                !
 ! D34   D(20,9,10,11)          55.135          estimate D2E/DX2                !
 ! D35   D(20,9,10,22)         167.7749         estimate D2E/DX2                !
 ! D36   D(20,9,10,23)         -65.328          estimate D2E/DX2                !
 ! D37   D(8,9,20,21)          155.845          estimate D2E/DX2                !
 ! D38   D(10,9,20,21)         -75.577          estimate D2E/DX2                !
 ! D39   D(19,9,20,21)          40.603          estimate D2E/DX2                !
 ! D40   D(9,10,11,12)          62.961          estimate D2E/DX2                !
 ! D41   D(9,10,11,13)         -59.764          estimate D2E/DX2                !
 ! D42   D(9,10,11,14)        -178.59           estimate D2E/DX2                !
 ! D43   D(22,10,11,12)        -55.2197         estimate D2E/DX2                !
 ! D44   D(22,10,11,13)       -177.9447         estimate D2E/DX2                !
 ! D45   D(22,10,11,14)         63.2294         estimate D2E/DX2                !
 ! D46   D(23,10,11,12)       -175.677          estimate D2E/DX2                !
 ! D47   D(23,10,11,13)         61.598          estimate D2E/DX2                !
 ! D48   D(23,10,11,14)        -57.228          estimate D2E/DX2                !
 ! D49   D(9,10,23,24)         -58.877          estimate D2E/DX2                !
 ! D50   D(11,10,23,24)        178.5924         estimate D2E/DX2                !
 ! D51   D(22,10,23,24)         66.1465         estimate D2E/DX2                !
 ! D52   D(10,11,14,15)       -179.647          estimate D2E/DX2                !
 ! D53   D(12,11,14,15)        -59.0769         estimate D2E/DX2                !
 ! D54   D(13,11,14,15)         58.9154         estimate D2E/DX2                !
 --------------------------------------------------------------------------------
 Trust Radius=3.00D-01 FncErr=1.00D-07 GrdErr=1.00D-06
 Number of steps in this run=    125 maximum allowed number of steps=    144.
 GradGradGradGradGradGradGradGradGradGradGradGradGradGradGradGradGradGrad

                          Input orientation:                          
 ---------------------------------------------------------------------
 Center     Atomic      Atomic             Coordinates (Angstroms)
 Number     Number       Type             X           Y           Z
 ---------------------------------------------------------------------
      1          6           0        0.000000    0.000000    0.000000
      2          8           0        0.000000    0.000000    1.413516
      3          1           0        0.927487    0.000000    1.705916
      4          1           0        0.518025   -0.897246   -0.348146
      5          1           0        0.517855    0.896952   -0.346765
      6          6           0       -1.421472    0.000000   -0.528838
      7          8           0       -2.388894   -0.031101    0.233292
      8          6           0       -1.598381    0.004915   -2.046186
      9          6           0       -0.312426   -0.195902   -2.862275
     10          6           0       -0.494879   -0.219473   -4.391388
     11          6           0        0.830614   -0.445708   -5.119133
     12          1           0        1.256558   -1.422948   -4.868705
     13          1           0        1.558462    0.338284   -4.893094
     14          8           0        0.593408   -0.423171   -6.523080
     15          1           0        1.449268   -0.574656   -6.958995
     16          1           0       -2.331590   -0.772020   -2.287782
     17          8           0       -2.174011    1.250380   -2.420629
     18          1           0       -1.506963    1.942496   -2.271473
     19          1           0        0.098732   -1.168576   -2.562645
     20          8           0        0.661927    0.780142   -2.505325
     21          1           0        1.539004    0.420454   -2.719826
     22          1           0       -1.070281   -1.099481   -4.699752
     23          8           0       -1.046239    1.020107   -4.834945
     24          1           0       -1.899034    1.146066   -4.384966
 ---------------------------------------------------------------------
                    Distance matrix (angstroms):
                    1          2          3          4          5
     1  C    0.000000
     2  O    1.413516   0.000000
     3  H    1.941747   0.972486   0.000000
     4  H    1.092980   2.043735   2.278570   0.000000
     5  H    1.092219   2.042373   2.277240   1.794199   0.000000
     6  C    1.516658   2.406932   3.242180   2.144609   2.144449
     7  O    2.400460   2.664716   3.628770   3.088439   3.105952
     8  C    2.596483   3.811087   4.523086   2.859442   2.856959
     9  C    2.885932   4.291664   4.737524   2.739047   2.865569
    10  C    4.424631   5.830093   6.264855   4.222932   4.316365
    11  C    5.205199   6.600309   6.840273   4.802491   4.967499
    12  H    5.225706   6.562775   6.734888   4.610558   5.135714
    13  H    5.146417   6.505119   6.637733   4.823442   4.697242
    14  O    6.563671   7.969991   8.246639   6.193564   6.316273
    15  H    7.131495   8.516428   8.699607   6.683906   6.837744
    16  H    3.356527   4.442064   5.212218   3.449373   3.830451
    17  O    3.485573   4.581533   5.311414   4.019271   3.416426
    18  H    3.347210   4.429828   5.051679   3.982951   2.982876
    19  H    2.818238   4.145500   4.502557   2.270117   3.058136
    20  O    2.706182   4.050196   4.291118   2.736377   2.166514
    21  H    3.153216   4.430557   4.487530   2.898896   2.627016
    22  H    4.943888   6.302889   6.799450   4.636819   5.045435
    23  O    5.050933   6.417048   6.907899   5.123917   4.754505
    24  H    4.914033   6.208236   6.811867   5.129641   4.712799
                    6          7          8          9         10
     6  C    0.000000
     7  O    1.231956   0.000000
     8  C    1.527634   2.412929   0.000000
     9  C    2.591002   3.731141   1.536232   0.000000
    10  C    3.978195   5.001044   2.601546   1.540140   0.000000
    11  C    5.132383   6.259839   3.942852   2.542116   1.528963
    12  H    5.294438   6.423156   4.260996   2.827210   2.178007
    13  H    5.295392   6.480579   4.263998   2.812437   2.186095
    14  O    6.337961   7.395702   5.002977   3.778052   2.402077
    15  H    7.065288   8.170430   5.810315   4.475504   3.240134
    16  H    2.125609   2.628319   1.095259   2.176919   2.846748
    17  O    2.389276   2.954939   1.422231   2.398391   2.977221
    18  H    2.611011   3.308585   1.952775   2.519665   3.192564
    19  H    2.795167   3.911444   2.126971   1.097690   2.144172
    20  O    2.975848   4.179192   2.433265   1.424584   2.427893
    21  H    3.706970   4.934895   3.235684   1.956522   2.709300
    22  H    4.327669   5.216809   2.922327   2.183374   1.095714
    23  O    4.441168   5.347409   3.018717   2.430758   1.427340
    24  H    4.051081   4.791032   2.619639   2.576197   1.958670
                   11         12         13         14         15
    11  C    0.000000
    12  H    1.095053   0.000000
    13  H    1.093389   1.787087   0.000000
    14  O    1.424023   2.043595   2.041567   0.000000
    15  H    1.945367   2.264078   2.261267   0.972351   0.000000
    16  H    4.257060   4.467625   4.811749   5.158978   6.012826
    17  O    4.380229   4.990848   4.569065   5.223934   6.087337
    18  H    4.390553   5.070392   4.340878   5.299443   6.086725
    19  H    2.755689   2.592909   3.135671   4.060219   4.637303
    20  O    2.891912   3.285233   2.588524   4.194641   4.721288
    21  H    2.647400   2.845275   2.174908   4.008815   4.355324
    22  H    2.053461   2.355283   3.002472   2.559254   3.424580
    23  O    2.398323   3.357459   2.693090   2.760669   3.644504
    24  H    3.244029   4.097755   3.586779   3.639547   4.560442
                   16         17         18         19         20
    16  H    0.000000
    17  O    2.032875   0.000000
    18  H    2.837054   0.972741   0.000000
    19  H    2.477755   3.322180   3.513091   0.000000
    20  O    3.379005   2.875907   2.471809   2.029280   0.000000
    21  H    4.073101   3.816383   3.434465   2.150373   0.971931
    22  H    2.741483   3.454630   3.916740   2.436923   3.368833
    23  O    3.369256   2.674662   2.763052   3.356284   2.898714
    24  H    2.874776   1.986231   2.292351   3.559423   3.197729
                   21         22         23         24
    21  H    0.000000
    22  H    3.610911   0.000000
    23  O    3.393640   2.124031   0.000000
    24  H    3.888356   2.414209   0.972423   0.000000
 Stoichiometry    C6H12O6
 Framework group  C1[X(C6H12O6)]
 Deg. of freedom    66
 Full point group                 C1      NOp   1
 Largest Abelian subgroup         C1      NOp   1
 Largest concise Abelian subgroup C1      NOp   1
                         Standard orientation:                         
 ---------------------------------------------------------------------
 Center     Atomic      Atomic             Coordinates (Angstroms)
 Number     Number       Type             X           Y           Z
 ---------------------------------------------------------------------
      1          6           0       -2.360861   -1.029188    0.067544
      2          8           0       -3.747943   -1.298884    0.103503
      3          1           0       -3.858310   -2.228782    0.365873
      4          1           0       -1.895066   -1.697327   -0.661311
      5          1           0       -1.947531   -1.204805    1.063165
      6          6           0       -2.112517    0.411378   -0.336619
      7          8           0       -3.043678    1.169172   -0.613032
      8          6           0       -0.657363    0.868963   -0.419121
      9          6           0        0.393989   -0.242413   -0.279434
     10          6           0        1.860445    0.214820   -0.391138
     11          6           0        2.833355   -0.957654   -0.262767
     12          1           0        2.696517   -1.675182   -1.078591
     13          1           0        2.727784   -1.471483    0.696573
     14          8           0        4.165249   -0.460041   -0.342020
     15          1           0        4.760255   -1.225066   -0.263464
     16          1           0       -0.537747    1.392751   -1.373547
     17          8           0       -0.434961    1.824870    0.610209
     18          1           0       -0.474045    1.357784    1.462576
     19          1           0        0.205925   -0.954141   -1.093682
     20          8           0        0.201415   -0.960808    0.935582
     21          1           0        0.589114   -1.845240    0.825488
     22          1           0        2.078555    0.574322   -1.402956
     23          8           0        2.155456    1.159424    0.637448
     24          1           0        1.547959    1.911869    0.535559
 ---------------------------------------------------------------------
 Rotational constants (GHZ):      1.9520803      0.4534180      0.3988865
 Standard basis: 6-311G(d,p) (5D, 7F)
 There are   288 symmetry adapted basis functions of A   symmetry.
 Integral buffers will be    131072 words long.
 Raffenetti 2 integral format.
 Two-electron integral symmetry is turned on.
   288 basis functions,   480 primitive gaussians,   300 cartesian basis functions
    48 alpha electrons       48 beta electrons
       nuclear repulsion energy       788.0720699455 Hartrees.
 NAtoms=   24 NActive=   24 NUniq=   24 SFac= 1.00D+00 NAtFMM=   50 NAOKFM=F Big=F
 One-electron integrals computed using PRISM.
 NBasis=   288 RedAO= T  NBF=   288
 NBsUse=   288 1.00D-06 NBFU=   288
 Harris functional with IExCor=  402 diagonalized for initial guess.
 ExpMin= 1.03D-01 ExpMax= 8.59D+03 ExpMxC= 1.30D+03 IAcc=1 IRadAn=         1 AccDes= 0.00D+00
 HarFok:  IExCor=  402 AccDes= 0.00D+00 IRadAn=         1 IDoV= 1
 ScaDFX=  1.000000  1.000000  1.000000  1.000000
 FoFCou: FMM=F IPFlag=           0 FMFlag=      100000 FMFlg1=           0
         NFxFlg=           0 DoJE=T BraDBF=F KetDBF=T FulRan=T
         Omega=  0.000000  0.000000  1.000000  0.000000  0.000000 ICntrl=     500 IOpCl=  0
         NMat0=    1 NMatS0=    1 NMatT0=    0 NMatD0=    1 NMtDS0=    0 NMtDT0=    0
         I1Cent=           4 NGrid=           0.
 Petite list used in FoFCou.
 Initial guess orbital symmetries:
       Occupied  (A) (A) (A) (A) (A) (A) (A) (A) (A) (A) (A) (A)
                 (A) (A) (A) (A) (A) (A) (A) (A) (A) (A) (A) (A)
                 (A) (A) (A) (A) (A) (A) (A) (A) (A) (A) (A) (A)
                 (A) (A) (A) (A) (A) (A) (A) (A) (A) (A) (A) (A)
       Virtual   (A) (A) (A) (A) (A) (A) (A) (A) (A) (A) (A) (A)
                 (A) (A) (A) (A) (A) (A) (A) (A) (A) (A) (A) (A)
                 (A) (A) (A) (A) (A) (A) (A) (A) (A) (A) (A) (A)
                 (A) (A) (A) (A) (A) (A) (A) (A) (A) (A) (A) (A)
                 (A) (A) (A) (A) (A) (A) (A) (A) (A) (A) (A) (A)
                 (A) (A) (A) (A) (A) (A) (A) (A) (A) (A) (A) (A)
                 (A) (A) (A) (A) (A) (A) (A) (A) (A) (A) (A) (A)
                 (A) (A) (A) (A) (A) (A) (A) (A) (A) (A) (A) (A)
                 (A) (A) (A) (A) (A) (A) (A) (A) (A) (A) (A) (A)
                 (A) (A) (A) (A) (A) (A) (A) (A) (A) (A) (A) (A)
                 (A) (A) (A) (A) (A) (A) (A) (A) (A) (A) (A) (A)
                 (A) (A) (A) (A) (A) (A) (A) (A) (A) (A) (A) (A)
                 (A) (A) (A) (A) (A) (A) (A) (A) (A) (A) (A) (A)
                 (A) (A) (A) (A) (A) (A) (A) (A) (A) (A) (A) (A)
                 (A) (A) (A) (A) (A) (A) (A) (A) (A) (A) (A) (A)
                 (A) (A) (A) (A) (A) (A) (A) (A) (A) (A) (A) (A)
                 (A) (A) (A) (A) (A) (A) (A) (A) (A) (A) (A) (A)
                 (A) (A) (A) (A) (A) (A) (A) (A) (A) (A) (A) (A)
                 (A) (A) (A) (A) (A) (A) (A) (A) (A) (A) (A) (A)
                 (A) (A) (A) (A) (A) (A) (A) (A) (A) (A) (A) (A)
 The electronic state of the initial guess is 1-A.
 Requested convergence on RMS density matrix=1.00D-08 within 128 cycles.
 Requested convergence on MAX density matrix=1.00D-06.
 Requested convergence on             energy=1.00D-06.
 No special actions if energy rises.
 Keep R1 ints in memory in canonical form, NReq=1033417440.
 Integral accuracy reduced to 1.0D-05 until final iterations.
 Initial convergence to 1.0D-05 achieved.  Increase integral accuracy.
 SCF Done:  E(RB3LYP) =  -687.324043725     A.U. after   14 cycles
             Convg  =    0.5364D-08             -V/T =  2.0030

 **********************************************************************

            Population analysis using the SCF density.

 **********************************************************************

 Orbital symmetries:
       Occupied  (A) (A) (A) (A) (A) (A) (A) (A) (A) (A) (A) (A)
                 (A) (A) (A) (A) (A) (A) (A) (A) (A) (A) (A) (A)
                 (A) (A) (A) (A) (A) (A) (A) (A) (A) (A) (A) (A)
                 (A) (A) (A) (A) (A) (A) (A) (A) (A) (A) (A) (A)
       Virtual   (A) (A) (A) (A) (A) (A) (A) (A) (A) (A) (A) (A)
                 (A) (A) (A) (A) (A) (A) (A) (A) (A) (A) (A) (A)
                 (A) (A) (A) (A) (A) (A) (A) (A) (A) (A) (A) (A)
                 (A) (A) (A) (A) (A) (A) (A) (A) (A) (A) (A) (A)
                 (A) (A) (A) (A) (A) (A) (A) (A) (A) (A) (A) (A)
                 (A) (A) (A) (A) (A) (A) (A) (A) (A) (A) (A) (A)
                 (A) (A) (A) (A) (A) (A) (A) (A) (A) (A) (A) (A)
                 (A) (A) (A) (A) (A) (A) (A) (A) (A) (A) (A) (A)
                 (A) (A) (A) (A) (A) (A) (A) (A) (A) (A) (A) (A)
                 (A) (A) (A) (A) (A) (A) (A) (A) (A) (A) (A) (A)
                 (A) (A) (A) (A) (A) (A) (A) (A) (A) (A) (A) (A)
                 (A) (A) (A) (A) (A) (A) (A) (A) (A) (A) (A) (A)
                 (A) (A) (A) (A) (A) (A) (A) (A) (A) (A) (A) (A)
                 (A) (A) (A) (A) (A) (A) (A) (A) (A) (A) (A) (A)
                 (A) (A) (A) (A) (A) (A) (A) (A) (A) (A) (A) (A)
                 (A) (A) (A) (A) (A) (A) (A) (A) (A) (A) (A) (A)
                 (A) (A) (A) (A) (A) (A) (A) (A) (A) (A) (A) (A)
                 (A) (A) (A) (A) (A) (A) (A) (A) (A) (A) (A) (A)
                 (A) (A) (A) (A) (A) (A) (A) (A) (A) (A) (A) (A)
                 (A) (A) (A) (A) (A) (A) (A) (A) (A) (A) (A) (A)
 The electronic state is 1-A.
 Alpha  occ. eigenvalues --  -19.14918 -19.14530 -19.12027 -19.11865 -19.11791
 Alpha  occ. eigenvalues --  -19.10663 -10.27032 -10.25406 -10.25134 -10.23632
 Alpha  occ. eigenvalues --  -10.23092 -10.23038  -1.07461  -1.05299  -1.04162
 Alpha  occ. eigenvalues --   -1.03053  -1.02041  -1.00787  -0.80086  -0.76301
 Alpha  occ. eigenvalues --   -0.72103  -0.66761  -0.60631  -0.57872  -0.56201
 Alpha  occ. eigenvalues --   -0.53838  -0.52608  -0.51561  -0.50351  -0.48661
 Alpha  occ. eigenvalues --   -0.48190  -0.46862  -0.45482  -0.43713  -0.43059
 Alpha  occ. eigenvalues --   -0.42078  -0.38850  -0.37607  -0.36652  -0.35945
 Alpha  occ. eigenvalues --   -0.34912  -0.33685  -0.31591  -0.30652  -0.28240
 Alpha  occ. eigenvalues --   -0.28088  -0.27006  -0.25335
 Alpha virt. eigenvalues --   -0.04744  -0.00167   0.02468   0.02677   0.03725
 Alpha virt. eigenvalues --    0.05434   0.06798   0.07958   0.10107   0.11276
 Alpha virt. eigenvalues --    0.12071   0.12587   0.13854   0.14744   0.16200
 Alpha virt. eigenvalues --    0.16756   0.18712   0.20222   0.20967   0.23853
 Alpha virt. eigenvalues --    0.25477   0.27115   0.28923   0.31077   0.34964
 Alpha virt. eigenvalues --    0.35635   0.36770   0.37961   0.38444   0.39831
 Alpha virt. eigenvalues --    0.41272   0.41604   0.44522   0.45107   0.45587
 Alpha virt. eigenvalues --    0.46065   0.47324   0.48785   0.49725   0.50234
 Alpha virt. eigenvalues --    0.52261   0.53189   0.54051   0.56433   0.57115
 Alpha virt. eigenvalues --    0.57889   0.58721   0.59475   0.61031   0.61785
 Alpha virt. eigenvalues --    0.62040   0.64202   0.65561   0.67637   0.69782
 Alpha virt. eigenvalues --    0.73415   0.77048   0.78469   0.80589   0.81566
 Alpha virt. eigenvalues --    0.81883   0.83620   0.85554   0.85925   0.87491
 Alpha virt. eigenvalues --    0.88535   0.89338   0.91226   0.92249   0.93684
 Alpha virt. eigenvalues --    0.96869   0.99058   1.01694   1.04751   1.05834
 Alpha virt. eigenvalues --    1.07452   1.09578   1.12789   1.13169   1.17334
 Alpha virt. eigenvalues --    1.18549   1.20694   1.22791   1.28615   1.28945
 Alpha virt. eigenvalues --    1.30575   1.33023   1.35157   1.38305   1.38660
 Alpha virt. eigenvalues --    1.39013   1.40086   1.40675   1.42716   1.43085
 Alpha virt. eigenvalues --    1.44678   1.47055   1.48780   1.49791   1.51551
 Alpha virt. eigenvalues --    1.53062   1.54432   1.55198   1.57092   1.58632
 Alpha virt. eigenvalues --    1.59767   1.60991   1.62587   1.63015   1.64476
 Alpha virt. eigenvalues --    1.66158   1.67149   1.67503   1.68783   1.71405
 Alpha virt. eigenvalues --    1.74650   1.77692   1.78619   1.80981   1.82904
 Alpha virt. eigenvalues --    1.85879   1.89031   1.90676   1.92112   1.93678
 Alpha virt. eigenvalues --    1.94224   1.95130   1.96470   1.98147   2.00905
 Alpha virt. eigenvalues --    2.02338   2.04680   2.07681   2.08828   2.09566
 Alpha virt. eigenvalues --    2.10250   2.14363   2.17483   2.21214   2.21829
 Alpha virt. eigenvalues --    2.27268   2.29629   2.32292   2.36707   2.38609
 Alpha virt. eigenvalues --    2.39805   2.41023   2.43455   2.46139   2.48541
 Alpha virt. eigenvalues --    2.49535   2.52026   2.54291   2.55124   2.56841
 Alpha virt. eigenvalues --    2.60821   2.65051   2.68415   2.70041   2.74598
 Alpha virt. eigenvalues --    2.77602   2.80720   2.81924   2.84697   2.87571
 Alpha virt. eigenvalues --    2.89953   2.90420   2.91696   2.95546   2.97209
 Alpha virt. eigenvalues --    2.99376   3.01625   3.07667   3.09171   3.10907
 Alpha virt. eigenvalues --    3.11472   3.13675   3.14504   3.15193   3.17750
 Alpha virt. eigenvalues --    3.18695   3.21584   3.23643   3.24939   3.25757
 Alpha virt. eigenvalues --    3.27794   3.29582   3.32169   3.35496   3.37070
 Alpha virt. eigenvalues --    3.41607   3.47811   3.58688   3.69569   3.76782
 Alpha virt. eigenvalues --    3.77948   3.79352   3.79644   3.81312   3.82799
 Alpha virt. eigenvalues --    3.89546   3.90388   3.91509   3.91652   3.93422
 Alpha virt. eigenvalues --    4.03505   4.05261   4.09771   4.21016   4.35350
 Alpha virt. eigenvalues --    4.83450   4.85558   4.90215   4.92293   4.98430
 Alpha virt. eigenvalues --    5.01497   5.04028   5.23202   5.25556   5.25651
 Alpha virt. eigenvalues --    5.29850   5.31843   5.55545   5.57658   5.59878
 Alpha virt. eigenvalues --    5.60960   5.65362   5.65760  23.67123  23.73970
 Alpha virt. eigenvalues --   23.77339  23.78791  23.79077  23.82408  49.85740
 Alpha virt. eigenvalues --   49.88311  49.88717  49.90159  49.94090  49.96458
          Condensed to atoms (all electrons):
              1          2          3          4          5          6
     1  C    5.018636   0.261548  -0.034865   0.374372   0.402127   0.201008
     2  O    0.261548   7.914731   0.303994  -0.032213  -0.029820  -0.036604
     3  H   -0.034865   0.303994   0.498162  -0.006450  -0.004636   0.010076
     4  H    0.374372  -0.032213  -0.006450   0.611374  -0.027389  -0.032447
     5  H    0.402127  -0.029820  -0.004636  -0.027389   0.545645  -0.052717
     6  C    0.201008  -0.036604   0.010076  -0.032447  -0.052717   4.916709
     7  O   -0.090427   0.004017  -0.000066   0.001393   0.001296   0.656521
     8  C   -0.125419   0.002633  -0.000657   0.000992   0.021489   0.236023
     9  C   -0.003830  -0.000203   0.000004   0.006102  -0.019384  -0.010455
    10  C    0.000201  -0.000001  -0.000002   0.000960   0.000639   0.000955
    11  C    0.000025   0.000000   0.000000  -0.000031  -0.000095  -0.000026
    12  H   -0.000001   0.000000   0.000000  -0.000089  -0.000004   0.000033
    13  H    0.000010   0.000000   0.000001   0.000000  -0.000090   0.000007
    14  O    0.000000   0.000000   0.000000   0.000000   0.000000   0.000000
    15  H    0.000000   0.000000   0.000000   0.000000   0.000000   0.000000
    16  H    0.011738  -0.000087   0.000041  -0.001739   0.000402  -0.033098
    17  O    0.003126  -0.000007   0.000008   0.000153  -0.000033  -0.029550
    18  H    0.002053  -0.000077   0.000013  -0.000114   0.001096  -0.004217
    19  H   -0.006819  -0.000331  -0.000017   0.003108   0.000240   0.004858
    20  O   -0.010824   0.000285  -0.000131  -0.001639   0.019106  -0.003343
    21  H    0.001976  -0.000053  -0.000047   0.000618  -0.000921  -0.000831
    22  H   -0.000041   0.000000   0.000000   0.000013  -0.000076  -0.000074
    23  O   -0.000045   0.000000   0.000000  -0.000017  -0.000091   0.000357
    24  H   -0.000212   0.000001   0.000000   0.000013   0.000006   0.001170
              7          8          9         10         11         12
     1  C   -0.090427  -0.125419  -0.003830   0.000201   0.000025  -0.000001
     2  O    0.004017   0.002633  -0.000203  -0.000001   0.000000   0.000000
     3  H   -0.000066  -0.000657   0.000004  -0.000002   0.000000   0.000000
     4  H    0.001393   0.000992   0.006102   0.000960  -0.000031  -0.000089
     5  H    0.001296   0.021489  -0.019384   0.000639  -0.000095  -0.000004
     6  C    0.656521   0.236023  -0.010455   0.000955  -0.000026   0.000033
     7  O    7.766063  -0.075069   0.004377  -0.000116   0.000001   0.000000
     8  C   -0.075069   5.266998   0.187878  -0.016883   0.005515  -0.000405
     9  C    0.004377   0.187878   5.432876   0.158940  -0.029213   0.008759
    10  C   -0.000116  -0.016883   0.158940   5.129882   0.286588  -0.048942
    11  C    0.000001   0.005515  -0.029213   0.286588   4.811482   0.385335
    12  H    0.000000  -0.000405   0.008759  -0.048942   0.385335   0.663826
    13  H    0.000000  -0.001172  -0.012954  -0.040814   0.372065  -0.048984
    14  O    0.000000  -0.000050   0.003257  -0.051904   0.287760  -0.038287
    15  H    0.000000   0.000025  -0.000726   0.010198  -0.033107  -0.007412
    16  H    0.006141   0.379580  -0.040737  -0.004271   0.000258  -0.000068
    17  O   -0.001390   0.235686  -0.038655  -0.012099   0.000012   0.000034
    18  H    0.000983  -0.057967  -0.010430  -0.002250  -0.000054  -0.000001
    19  H    0.000130  -0.063514   0.362028  -0.035010  -0.005655   0.007372
    20  O   -0.000011  -0.039451   0.193565  -0.047158  -0.003128  -0.000529
    21  H    0.000018   0.008288  -0.031913  -0.002607   0.004868  -0.001889
    22  H   -0.000005  -0.012968  -0.044621   0.354955  -0.045187  -0.010864
    23  O    0.000000  -0.011019  -0.044577   0.264879  -0.042482   0.004585
    24  H   -0.000037   0.002267  -0.005003  -0.034769   0.006099  -0.000414
             13         14         15         16         17         18
     1  C    0.000010   0.000000   0.000000   0.011738   0.003126   0.002053
     2  O    0.000000   0.000000   0.000000  -0.000087  -0.000007  -0.000077
     3  H    0.000001   0.000000   0.000000   0.000041   0.000008   0.000013
     4  H    0.000000   0.000000   0.000000  -0.001739   0.000153  -0.000114
     5  H   -0.000090   0.000000   0.000000   0.000402  -0.000033   0.001096
     6  C    0.000007   0.000000   0.000000  -0.033098  -0.029550  -0.004217
     7  O    0.000000   0.000000   0.000000   0.006141  -0.001390   0.000983
     8  C   -0.001172  -0.000050   0.000025   0.379580   0.235686  -0.057967
     9  C   -0.012954   0.003257  -0.000726  -0.040737  -0.038655  -0.010430
    10  C   -0.040814  -0.051904   0.010198  -0.004271  -0.012099  -0.002250
    11  C    0.372065   0.287760  -0.033107   0.000258   0.000012  -0.000054
    12  H   -0.048984  -0.038287  -0.007412  -0.000068   0.000034  -0.000001
    13  H    0.645202  -0.032870  -0.005800   0.000013  -0.000001   0.000284
    14  O   -0.032870   7.904488   0.304377  -0.000006   0.000000  -0.000003
    15  H   -0.005800   0.304377   0.498456   0.000001   0.000000  -0.000001
    16  H    0.000013  -0.000006   0.000001   0.547438  -0.023847   0.009226
    17  O   -0.000001   0.000000   0.000000  -0.023847   7.916173   0.314282
    18  H    0.000284  -0.000003  -0.000001   0.009226   0.314282   0.472477
    19  H    0.001477  -0.000320  -0.000064  -0.000917   0.006734   0.001958
    20  O    0.014049   0.000047   0.000020   0.003050  -0.002457   0.012545
    21  H    0.005527  -0.000301  -0.000025  -0.000472  -0.000306  -0.000668
    22  H    0.016762   0.008842  -0.000864   0.001681  -0.000166   0.000862
    23  O    0.003192   0.002676  -0.000168   0.000420  -0.012581   0.009649
    24  H   -0.001050   0.000049   0.000080  -0.003798   0.039102  -0.007097
             19         20         21         22         23         24
     1  C   -0.006819  -0.010824   0.001976  -0.000041  -0.000045  -0.000212
     2  O   -0.000331   0.000285  -0.000053   0.000000   0.000000   0.000001
     3  H   -0.000017  -0.000131  -0.000047   0.000000   0.000000   0.000000
     4  H    0.003108  -0.001639   0.000618   0.000013  -0.000017   0.000013
     5  H    0.000240   0.019106  -0.000921  -0.000076  -0.000091   0.000006
     6  C    0.004858  -0.003343  -0.000831  -0.000074   0.000357   0.001170
     7  O    0.000130  -0.000011   0.000018  -0.000005   0.000000  -0.000037
     8  C   -0.063514  -0.039451   0.008288  -0.012968  -0.011019   0.002267
     9  C    0.362028   0.193565  -0.031913  -0.044621  -0.044577  -0.005003
    10  C   -0.035010  -0.047158  -0.002607   0.354955   0.264879  -0.034769
    11  C   -0.005655  -0.003128   0.004868  -0.045187  -0.042482   0.006099
    12  H    0.007372  -0.000529  -0.001889  -0.010864   0.004585  -0.000414
    13  H    0.001477   0.014049   0.005527   0.016762   0.003192  -0.001050
    14  O   -0.000320   0.000047  -0.000301   0.008842   0.002676   0.000049
    15  H   -0.000064   0.000020  -0.000025  -0.000864  -0.000168   0.000080
    16  H   -0.000917   0.003050  -0.000472   0.001681   0.000420  -0.003798
    17  O    0.006734  -0.002457  -0.000306  -0.000166  -0.012581   0.039102
    18  H    0.001958   0.012545  -0.000668   0.000862   0.009649  -0.007097
    19  H    0.668239  -0.041393  -0.017695   0.002628   0.006372  -0.000690
    20  O   -0.041393   7.996797   0.317825   0.004786  -0.000426   0.000130
    21  H   -0.017695   0.317825   0.463488   0.000408   0.000297  -0.000262
    22  H    0.002628   0.004786   0.000408   0.656410  -0.029264  -0.009259
    23  O    0.006372  -0.000426   0.000297  -0.029264   7.931690   0.316480
    24  H   -0.000690   0.000130  -0.000262  -0.009259   0.316480   0.456407
 Mulliken atomic charges:
              1
     1  C   -0.004336
     2  O   -0.387812
     3  H    0.234573
     4  H    0.103030
     5  H    0.143210
     6  C    0.175645
     7  O   -0.273818
     8  C    0.057201
     9  C   -0.065084
    10  C    0.088629
    11  C   -0.001030
    12  H    0.087946
    13  H    0.085150
    14  O   -0.387754
    15  H    0.235012
    16  H    0.149052
    17  O   -0.394219
    18  H    0.257454
    19  H    0.107281
    20  O   -0.411715
    21  H    0.254679
    22  H    0.106043
    23  O   -0.399926
    24  H    0.240788
 Sum of Mulliken atomic charges =   0.00000
 Mulliken charges with hydrogens summed into heavy atoms:
              1
     1  C    0.241904
     2  O   -0.153239
     6  C    0.175645
     7  O   -0.273818
     8  C    0.206253
     9  C    0.042197
    10  C    0.194672
    11  C    0.172066
    14  O   -0.152742
    17  O   -0.136765
    20  O   -0.157036
    23  O   -0.159138
 Sum of Mulliken charges with hydrogens summed into heavy atoms =   0.00000
 Electronic spatial extent (au):  <R**2>=           2712.8455
 Charge=              0.0000 electrons
 Dipole moment (field-independent basis, Debye):
    X=              2.2484    Y=             -6.1724    Z=             -0.5151  Tot=              6.5894
 Quadrupole moment (field-independent basis, Debye-Ang):
   XX=            -90.2501   YY=            -62.7815   ZZ=            -69.1158
   XY=             -0.4878   XZ=             -6.0738   YZ=             -0.7861
 Traceless Quadrupole moment (field-independent basis, Debye-Ang):
   XX=            -16.2010   YY=             11.2677   ZZ=              4.9333
   XY=             -0.4878   XZ=             -6.0738   YZ=             -0.7861
 Octapole moment (field-independent basis, Debye-Ang**2):
  XXX=             69.2807  YYY=            -31.2099  ZZZ=              8.2863  XYY=              5.0383
  XXY=            -75.2396  XXZ=             13.8157  XZZ=             -5.1052  YZZ=              3.7754
  YYZ=              7.0873  XYZ=             -0.7445
 Hexadecapole moment (field-independent basis, Debye-Ang**3):
 XXXX=          -2629.2147 YYYY=           -500.8275 ZZZZ=           -190.8325 XXXY=            -84.2588
 XXXZ=            -52.7194 YYYX=             65.7779 YYYZ=            -12.5328 ZZZX=             -2.0641
 ZZZY=              5.7189 XXYY=           -397.2777 XXZZ=           -457.9846 YYZZ=           -114.0152
 XXYZ=             -7.2631 YYXZ=            -15.2150 ZZXY=              0.3419
 N-N= 7.880720699455D+02 E-N=-3.191818863765D+03  KE= 6.852395960778D+02
 Calling FoFJK, ICntrl=      2127 FMM=F ISym2X=0 I1Cent= 0 IOpClX= 0 NMat=1 NMatS=1 NMatT=0.
 ***** Axes restored to original set *****
 -------------------------------------------------------------------
 Center     Atomic                   Forces (Hartrees/Bohr)
 Number     Number              X              Y              Z
 -------------------------------------------------------------------
      1        6           0.004035714    0.008943561    0.023344056
      2        8           0.002912048   -0.003099131    0.010571552
      3        1          -0.010959832    0.000466558   -0.004205562
      4        1           0.001520556   -0.001006659   -0.009416440
      5        1          -0.000304499   -0.003589473   -0.006798453
      6        6          -0.022045985   -0.011482982    0.037350860
      7        8           0.029996729    0.002749502   -0.030867350
      8        6           0.006544166    0.011860860   -0.010655963
      9        6           0.013119669   -0.027766828   -0.001910440
     10        6          -0.000400592    0.009083403   -0.004189594
     11        6           0.006166271    0.006755484   -0.012368499
     12        1          -0.001065062   -0.001821948    0.010013746
     13        1          -0.000070875    0.002828674    0.006723475
     14        8           0.003653028   -0.003413360   -0.006329810
     15        1          -0.010130189    0.002059934    0.004320797
     16        1           0.001566439    0.002022065   -0.001563275
     17        8          -0.008503145    0.012228247    0.003762573
     18        1          -0.004337075   -0.005256847   -0.001917366
     19        1          -0.003034095   -0.006071916   -0.001785181
     20        8           0.006751037    0.008021364   -0.002122158
     21        1          -0.010564787    0.006358071    0.001539793
     22        1          -0.012334399    0.001574537    0.002955435
     23        8          -0.000616814   -0.009836092   -0.005408914
     24        1           0.008101693   -0.001607025   -0.001043280
 -------------------------------------------------------------------
 Cartesian Forces:  Max     0.037350860 RMS     0.010431565

 GradGradGradGradGradGradGradGradGradGradGradGradGradGradGradGradGradGrad
 Berny optimization.
 Internal  Forces:  Max     0.042720510 RMS     0.008201544
 Search for a local minimum.
 Step number   1 out of a maximum of  125
 All quantities printed in internal units (Hartrees-Bohrs-Radians)
 Mixed Optimization -- RFO/linear search
 Second derivative matrix not updated -- first step.
 ITU=  0
     Eigenvalues ---    0.00235   0.00287   0.00383   0.00400   0.00474
     Eigenvalues ---    0.00546   0.01330   0.01367   0.01374   0.01398
     Eigenvalues ---    0.01513   0.03721   0.04406   0.04529   0.04671
     Eigenvalues ---    0.04838   0.05234   0.05249   0.05567   0.06358
     Eigenvalues ---    0.07013   0.07362   0.07684   0.08492   0.11472
     Eigenvalues ---    0.11550   0.13692   0.13970   0.16000   0.16000
     Eigenvalues ---    0.16000   0.16000   0.16000   0.16590   0.17760
     Eigenvalues ---    0.18243   0.19782   0.19825   0.20268   0.22028
     Eigenvalues ---    0.22170   0.24991   0.25000   0.28507   0.28855
     Eigenvalues ---    0.29519   0.29643   0.30691   0.33939   0.34161
     Eigenvalues ---    0.34212   0.34235   0.34424   0.34470   0.34557
     Eigenvalues ---    0.41374   0.41777   0.41860   0.42126   0.43452
     Eigenvalues ---    0.52821   0.52872   0.52885   0.52900   0.52984
     Eigenvalues ---    0.90276
 RFO step:  Lambda=-3.28609696D-02 EMin= 2.34972033D-03
 Linear search not attempted -- first point.
 Maximum step size (   0.300) exceeded in Quadratic search.
    -- Step size scaled by   0.960
 Iteration  1 RMS(Cart)=  0.22062657 RMS(Int)=  0.01102340
 Iteration  2 RMS(Cart)=  0.02214438 RMS(Int)=  0.00115905
 Iteration  3 RMS(Cart)=  0.00028725 RMS(Int)=  0.00115296
 Iteration  4 RMS(Cart)=  0.00000018 RMS(Int)=  0.00115296
 Variable       Old X    -DE/DX   Delta X   Delta X   Delta X     New X
                                 (Linear)    (Quad)   (Total)
    R1        2.67116   0.00637   0.00000   0.01308   0.01308   2.68424
    R2        2.06543   0.00455   0.00000   0.01156   0.01156   2.07700
    R3        2.06400  -0.00093   0.00000  -0.00237  -0.00237   2.06162
    R4        2.86607   0.00208   0.00000   0.00588   0.00588   2.87195
    R5        1.83773  -0.01172   0.00000  -0.02004  -0.02004   1.81770
    R6        2.32806  -0.04272   0.00000  -0.04385  -0.04385   2.28421
    R7        2.88681   0.02046   0.00000   0.05967   0.05967   2.94648
    R8        2.90306   0.00656   0.00000   0.01958   0.01958   2.92264
    R9        2.06974  -0.00214   0.00000  -0.00548  -0.00548   2.06426
   R10        2.68763   0.01082   0.00000   0.02288   0.02288   2.71051
   R11        2.91044   0.00600   0.00000   0.01811   0.01811   2.92855
   R12        2.07433   0.00376   0.00000   0.00969   0.00969   2.08402
   R13        2.69207   0.00709   0.00000   0.01512   0.01512   2.70719
   R14        2.88932  -0.00333   0.00000  -0.00974  -0.00974   2.87958
   R15        2.07060   0.00438   0.00000   0.01123   0.01123   2.08183
   R16        2.69728  -0.01082   0.00000  -0.02327  -0.02327   2.67401
   R17        2.06935   0.00350   0.00000   0.00897   0.00897   2.07832
   R18        2.06621   0.00337   0.00000   0.00858   0.00858   2.07478
   R19        2.69101   0.00304   0.00000   0.00646   0.00646   2.69747
   R20        1.83748  -0.01117   0.00000  -0.01910  -0.01910   1.81838
   R21        1.83821  -0.00700   0.00000  -0.01198  -0.01198   1.82623
   R22        1.83668  -0.01222   0.00000  -0.02086  -0.02086   1.81582
   R23        1.83761  -0.00780   0.00000  -0.01333  -0.01333   1.82428
    A1        1.89497   0.00753   0.00000   0.04037   0.03970   1.93468
    A2        1.89387   0.00916   0.00000   0.05757   0.05725   1.95113
    A3        1.92697  -0.01028   0.00000  -0.03399  -0.03375   1.89322
    A4        1.92656  -0.00358   0.00000  -0.02780  -0.02921   1.89735
    A5        1.91043  -0.00223   0.00000  -0.02544  -0.02542   1.88501
    A6        1.91099  -0.00056   0.00000  -0.01008  -0.00993   1.90106
    A7        1.87619  -0.00131   0.00000  -0.00654  -0.00654   1.86965
    A8        2.11798  -0.01026   0.00000  -0.03479  -0.03479   2.08318
    A9        2.04303   0.03384   0.00000   0.11492   0.11492   2.15795
   A10        2.12188  -0.02357   0.00000  -0.07999  -0.07999   2.04189
   A11        2.01561   0.02047   0.00000   0.10612   0.10386   2.11947
   A12        1.86956  -0.00754   0.00000  -0.06486  -0.06294   1.80662
   A13        1.88725  -0.00934   0.00000  -0.00641  -0.01418   1.87306
   A14        1.92887  -0.00997   0.00000  -0.06734  -0.06407   1.86479
   A15        1.88958   0.00486   0.00000   0.05421   0.04995   1.93953
   A16        1.86730   0.00015   0.00000  -0.03089  -0.03072   1.83658
   A17        2.01558  -0.00508   0.00000  -0.03783  -0.03840   1.97718
   A18        1.85915   0.00196   0.00000   0.00413   0.00350   1.86265
   A19        1.92822  -0.00327   0.00000  -0.02101  -0.02120   1.90702
   A20        1.87740  -0.00239   0.00000  -0.02023  -0.02098   1.85642
   A21        1.91801   0.00428   0.00000   0.01249   0.01155   1.92957
   A22        1.85723   0.00531   0.00000   0.07199   0.07216   1.92939
   A23        1.95210  -0.00434   0.00000  -0.01185  -0.01167   1.94043
   A24        1.93255  -0.00649   0.00000  -0.04223  -0.04188   1.89067
   A25        1.91878   0.01242   0.00000   0.05812   0.05831   1.97709
   A26        1.77467   0.00906   0.00000   0.05516   0.05509   1.82976
   A27        1.89175  -0.00749   0.00000  -0.03072  -0.03061   1.86113
   A28        1.99016  -0.00410   0.00000  -0.03129  -0.03059   1.95957
   A29        1.93950  -0.00563   0.00000  -0.04432  -0.04461   1.89488
   A30        1.95260  -0.00299   0.00000  -0.02480  -0.02501   1.92759
   A31        1.89918  -0.00668   0.00000  -0.02151  -0.02127   1.87791
   A32        1.91100   0.00125   0.00000   0.00123  -0.00104   1.90996
   A33        1.88009   0.00736   0.00000   0.04388   0.04312   1.92321
   A34        1.87901   0.00746   0.00000   0.05120   0.05081   1.92982
   A35        1.86806   0.00141   0.00000   0.00701   0.00701   1.87507
   A36        1.88091  -0.00040   0.00000  -0.00197  -0.00197   1.87893
   A37        1.88426   0.00248   0.00000   0.01233   0.01233   1.89659
   A38        1.88331  -0.00348   0.00000  -0.01731  -0.01731   1.86600
    D1        1.04720   0.00348   0.00000   0.02206   0.02312   1.07032
    D2       -1.04720  -0.00191   0.00000  -0.00137  -0.00240  -1.04959
    D3        3.14159  -0.00075   0.00000  -0.00443  -0.00446   3.13713
    D4       -0.02957   0.00232   0.00000   0.04417   0.04408   0.01451
    D5        3.13798   0.00221   0.00000   0.03888   0.03868  -3.10653
    D6        2.05550   0.00387   0.00000   0.05702   0.05702   2.11252
    D7       -1.06014   0.00376   0.00000   0.05173   0.05162  -1.00852
    D8       -2.11363  -0.00228   0.00000   0.00050   0.00076  -2.11287
    D9        1.05392  -0.00240   0.00000  -0.00478  -0.00464   1.04928
   D10        0.14852   0.00634   0.00000   0.07651   0.07695   0.22546
   D11        2.30534   0.00154   0.00000   0.01120   0.01012   2.31546
   D12       -1.97080  -0.00669   0.00000  -0.06058  -0.06011  -2.03091
   D13       -2.96706   0.00602   0.00000   0.07049   0.07104  -2.89603
   D14       -0.81024   0.00121   0.00000   0.00518   0.00421  -0.80603
   D15        1.19681  -0.00702   0.00000  -0.06661  -0.06602   1.13079
   D16        3.12086  -0.00676   0.00000  -0.13422  -0.13676   2.98409
   D17        1.03783  -0.00205   0.00000  -0.08859  -0.09081   0.94701
   D18       -0.97232  -0.00775   0.00000  -0.16525  -0.16722  -1.13954
   D19        0.99555  -0.00388   0.00000  -0.07266  -0.07290   0.92266
   D20       -1.08748   0.00083   0.00000  -0.02702  -0.02695  -1.11442
   D21       -3.09763  -0.00487   0.00000  -0.10369  -0.10335   3.08221
   D22       -1.04427  -0.00133   0.00000  -0.02954  -0.02766  -1.07192
   D23       -3.12730   0.00338   0.00000   0.01609   0.01829  -3.10900
   D24        1.14574  -0.00233   0.00000  -0.06057  -0.05811   1.08763
   D25        1.20420   0.01244   0.00000   0.09691   0.09565   1.29985
   D26       -0.99131  -0.00991   0.00000  -0.06462  -0.06373  -1.05504
   D27       -3.07045  -0.00082   0.00000   0.00289   0.00327  -3.06719
   D28       -3.12566  -0.00216   0.00000   0.02238   0.02208  -3.10358
   D29       -1.15972   0.00257   0.00000   0.05795   0.05778  -1.10194
   D30        1.05505   0.00172   0.00000   0.02948   0.02911   1.08416
   D31       -1.05269  -0.00454   0.00000  -0.01046  -0.01014  -1.06284
   D32        0.91324   0.00018   0.00000   0.02512   0.02556   0.93880
   D33        3.12801  -0.00067   0.00000  -0.00335  -0.00311   3.12490
   D34        0.96229   0.00268   0.00000   0.07023   0.07016   1.03245
   D35        2.92823   0.00740   0.00000   0.10580   0.10586   3.03409
   D36       -1.14019   0.00655   0.00000   0.07733   0.07719  -1.06300
   D37        2.72001   0.00418   0.00000   0.05113   0.05118   2.77119
   D38       -1.31907  -0.00169   0.00000  -0.00487  -0.00553  -1.32459
   D39        0.70866   0.00057   0.00000   0.01708   0.01769   0.72635
   D40        1.09888  -0.00735   0.00000  -0.07644  -0.07631   1.02257
   D41       -1.04308  -0.00274   0.00000  -0.02809  -0.02849  -1.07157
   D42       -3.11698  -0.00584   0.00000  -0.06247  -0.06243   3.10377
   D43       -0.96377  -0.00295   0.00000  -0.05302  -0.05290  -1.01666
   D44       -3.10572   0.00166   0.00000  -0.00467  -0.00508  -3.11080
   D45        1.10356  -0.00144   0.00000  -0.03905  -0.03902   1.06454
   D46       -3.06614   0.00040   0.00000  -0.03195  -0.03158  -3.09772
   D47        1.07509   0.00500   0.00000   0.01640   0.01624   1.09132
   D48       -0.99882   0.00190   0.00000  -0.01798  -0.01770  -1.01652
   D49       -1.02760   0.00110   0.00000   0.03879   0.03866  -0.98894
   D50        3.11702   0.00349   0.00000   0.03678   0.03716  -3.12900
   D51        1.15447  -0.00070   0.00000   0.00539   0.00514   1.15962
   D52       -3.13543   0.00092   0.00000   0.00608   0.00620  -3.12923
   D53       -1.03109  -0.00536   0.00000  -0.03384  -0.03512  -1.06621
   D54        1.02827   0.00397   0.00000   0.01808   0.01925   1.04751
         Item               Value     Threshold  Converged?
 Maximum Force            0.042721     0.000450     NO 
 RMS     Force            0.008202     0.000300     NO 
 Maximum Displacement     0.800563     0.001800     NO 
 RMS     Displacement     0.228998     0.001200     NO 
 Predicted change in Energy=-2.074340D-02
 GradGradGradGradGradGradGradGradGradGradGradGradGradGradGradGradGradGrad

                          Input orientation:                          
 ---------------------------------------------------------------------
 Center     Atomic      Atomic             Coordinates (Angstroms)
 Number     Number       Type             X           Y           Z
 ---------------------------------------------------------------------
      1          6           0       -0.017523   -0.012844    0.275728
      2          8           0       -0.315445   -0.153704    1.657409
      3          1           0        0.522582   -0.150737    2.129556
      4          1           0        0.594415   -0.853603   -0.080187
      5          1           0        0.512343    0.918023    0.068521
      6          6           0       -1.323401   -0.020182   -0.501663
      7          8           0       -2.368826   -0.119679    0.096894
      8          6           0       -1.403693    0.068125   -2.056301
      9          6           0       -0.149845   -0.124508   -2.941013
     10          6           0       -0.475764   -0.219685   -4.453084
     11          6           0        0.785053   -0.462073   -5.273804
     12          1           0        1.255032   -1.393903   -4.926858
     13          1           0        1.489613    0.370729   -5.149383
     14          8           0        0.392834   -0.587268   -6.640582
     15          1           0        1.189189   -0.751399   -7.155163
     16          1           0       -2.103422   -0.727726   -2.321339
     17          8           0       -2.082205    1.289640   -2.380113
     18          1           0       -1.466601    2.017641   -2.222075
     19          1           0        0.293044   -1.093732   -2.657003
     20          8           0        0.773077    0.942398   -2.691563
     21          1           0        1.650069    0.660664   -2.965106
     22          1           0       -1.096203   -1.114950   -4.618036
     23          8           0       -1.076830    0.952218   -4.970447
     24          1           0       -1.870324    1.116069   -4.445610
 ---------------------------------------------------------------------
                    Distance matrix (angstroms):
                    1          2          3          4          5
     1  C    0.000000
     2  O    1.420438   0.000000
     3  H    1.935822   0.961883   0.000000
     4  H    1.099099   2.082532   2.319944   0.000000
     5  H    1.090965   2.087677   2.321684   1.779750   0.000000
     6  C    1.519772   2.386503   3.216832   2.133132   2.138993
     7  O    2.360513   2.579291   3.534532   3.057908   3.062477
     8  C    2.714108   3.876227   4.613007   2.957541   2.984692
     9  C    3.221397   4.601496   5.115028   3.044640   3.253100
    10  C    4.755463   6.112952   6.658272   4.546357   4.766093
    11  C    5.625232   7.024806   7.414550   5.211842   5.524443
    12  H    5.531149   6.881646   7.202424   4.921236   5.554313
    13  H    5.643617   7.061564   7.361387   5.291231   5.336770
    14  O    6.952244   8.339442   8.781954   6.568893   6.876936
    15  H    7.564374   8.960055   9.327977   7.100668   7.444911
    16  H    3.406874   4.399637   5.199930   3.509549   3.906679
    17  O    3.607335   4.637485   5.403398   4.128855   3.586862
    18  H    3.530115   4.592417   5.253132   4.132737   3.220591
    19  H    3.140968   4.457361   4.883961   2.605469   3.394662
    20  O    3.215952   4.615179   4.949836   3.174402   2.772479
    21  H    3.706410   5.088623   5.280642   3.424934   3.250161
    22  H    5.130995   6.396467   7.005724   4.849595   5.355765
    23  O    5.438366   6.762488   7.361023   5.474367   5.283733
    24  H    5.195993   6.424704   7.110808   5.386230   5.108199
                    6          7          8          9         10
     6  C    0.000000
     7  O    1.208753   0.000000
     8  C    1.559213   2.367066   0.000000
     9  C    2.708975   3.762018   1.546596   0.000000
    10  C    4.046235   4.929096   2.586205   1.549722   0.000000
    11  C    5.235854   6.237674   3.927346   2.535724   1.523808
    12  H    5.302619   6.324086   4.176893   2.743833   2.144505
    13  H    5.446756   6.530809   4.246168   2.794634   2.167055
    14  O    6.399482   7.296505   4.967161   3.767686   2.382169
    15  H    7.149604   8.102522   5.778672   4.465990   3.218077
    16  H    2.102444   2.507591   1.092357   2.136430   2.729782
    17  O    2.412465   2.864244   1.434340   2.459357   3.025876
    18  H    2.670776   3.280208   1.957562   2.615247   3.311312
    19  H    2.900154   3.951997   2.142352   1.102818   2.140310
    20  O    3.180792   4.333019   2.430275   1.432584   2.452140
    21  H    3.920921   5.112367   3.240755   1.963864   2.740119
    22  H    4.265520   4.984044   2.838434   2.165405   1.101659
    23  O    4.579999   5.338179   3.062794   2.477346   1.415028
    24  H    4.140641   4.733911   2.650420   2.600556   1.931086
                   11         12         13         14         15
    11  C    0.000000
    12  H    1.099799   0.000000
    13  H    1.097927   1.794009   0.000000
    14  O    1.427442   2.081080   2.084312   0.000000
    15  H    1.945905   2.320019   2.317882   0.962244   0.000000
    16  H    4.138950   4.302526   4.702588   4.990680   5.848735
    17  O    4.434311   4.982415   4.612064   5.272590   6.137505
    18  H    4.531222   5.134371   4.474444   5.455846   6.249493
    19  H    2.736551   2.483498   3.128638   4.016885   4.599316
    20  O    2.939498   3.269116   2.623187   4.251965   4.792266
    21  H    2.709036   2.868060   2.209270   4.080085   4.445549
    22  H    2.096522   2.387779   3.029194   2.566393   3.433977
    23  O    2.357722   3.308136   2.637570   2.705417   3.579125
    24  H    3.198040   4.037252   3.512834   3.583454   4.493299
                   16         17         18         19         20
    16  H    0.000000
    17  O    2.018334   0.000000
    18  H    2.820006   0.966400   0.000000
    19  H    2.447382   3.376231   3.600854   0.000000
    20  O    3.346733   2.893131   2.528383   2.092236   0.000000
    21  H    4.053487   3.829842   3.479527   2.239274   0.960893
    22  H    2.537568   3.429658   3.961181   2.403353   3.382038
    23  O    3.300587   2.799011   2.973314   3.378533   2.935227
    24  H    2.822488   2.083579   2.433091   3.572463   3.177170
                   21         22         23         24
    21  H    0.000000
    22  H    3.664286   0.000000
    23  O    3.397406   2.097082   0.000000
    24  H    3.846095   2.367792   0.965367   0.000000
 Stoichiometry    C6H12O6
 Framework group  C1[X(C6H12O6)]
 Deg. of freedom    66
 Full point group                 C1      NOp   1
 Largest Abelian subgroup         C1      NOp   1
 Largest concise Abelian subgroup C1      NOp   1
                         Standard orientation:                         
 ---------------------------------------------------------------------
 Center     Atomic      Atomic             Coordinates (Angstroms)
 Number     Number       Type             X           Y           Z
 ---------------------------------------------------------------------
      1          6           0       -2.675441   -1.017517    0.097472
      2          8           0       -4.084151   -1.016288   -0.084674
      3          1           0       -4.404821   -1.883352    0.181014
      4          1           0       -2.200065   -1.781491   -0.533702
      5          1           0       -2.401665   -1.202656    1.137171
      6          6           0       -2.134664    0.339938   -0.320362
      7          8           0       -2.901893    1.189670   -0.708177
      8          6           0       -0.619565    0.707914   -0.305820
      9          6           0        0.472130   -0.375491   -0.143357
     10          6           0        1.907247    0.161283   -0.375637
     11          6           0        2.938276   -0.954433   -0.256701
     12          1           0        2.699144   -1.732571   -0.996212
     13          1           0        2.917835   -1.389633    0.751082
     14          8           0        4.219585   -0.389210   -0.533034
     15          1           0        4.867315   -1.097852   -0.468331
     16          1           0       -0.460670    1.173658   -1.281053
     17          8           0       -0.445845    1.764152    0.648912
     18          1           0       -0.512288    1.375554    1.531242
     19          1           0        0.291176   -1.128534   -0.928462
     20          8           0        0.360758   -0.967524    1.156408
     21          1           0        0.787732   -1.828184    1.139936
     22          1           0        1.983539    0.505831   -1.419246
     23          8           0        2.286062    1.163173    0.549037
     24          1           0        1.628732    1.867288    0.485219
 ---------------------------------------------------------------------
 Rotational constants (GHZ):      2.0275965      0.4174366      0.3786734
 Standard basis: 6-311G(d,p) (5D, 7F)
 There are   288 symmetry adapted basis functions of A   symmetry.
 Integral buffers will be    131072 words long.
 Raffenetti 2 integral format.
 Two-electron integral symmetry is turned on.
   288 basis functions,   480 primitive gaussians,   300 cartesian basis functions
    48 alpha electrons       48 beta electrons
       nuclear repulsion energy       776.7679673437 Hartrees.
 NAtoms=   24 NActive=   24 NUniq=   24 SFac= 1.00D+00 NAtFMM=   50 NAOKFM=F Big=F
 One-electron integrals computed using PRISM.
 NBasis=   288 RedAO= T  NBF=   288
 NBsUse=   288 1.00D-06 NBFU=   288
 Initial guess read from the read-write file.
 B after Tr=     0.000000    0.000000    0.000000
         Rot=    1.000000    0.000000    0.000000    0.000000 Ang=   0.00 deg.
 Initial guess orbital symmetries:
       Occupied  (A) (A) (A) (A) (A) (A) (A) (A) (A) (A) (A) (A)
                 (A) (A) (A) (A) (A) (A) (A) (A) (A) (A) (A) (A)
                 (A) (A) (A) (A) (A) (A) (A) (A) (A) (A) (A) (A)
                 (A) (A) (A) (A) (A) (A) (A) (A) (A) (A) (A) (A)
       Virtual   (A) (A) (A) (A) (A) (A) (A) (A) (A) (A) (A) (A)
                 (A) (A) (A) (A) (A) (A) (A) (A) (A) (A) (A) (A)
                 (A) (A) (A) (A) (A) (A) (A) (A) (A) (A) (A) (A)
                 (A) (A) (A) (A) (A) (A) (A) (A) (A) (A) (A) (A)
                 (A) (A) (A) (A) (A) (A) (A) (A) (A) (A) (A) (A)
                 (A) (A) (A) (A) (A) (A) (A) (A) (A) (A) (A) (A)
                 (A) (A) (A) (A) (A) (A) (A) (A) (A) (A) (A) (A)
                 (A) (A) (A) (A) (A) (A) (A) (A) (A) (A) (A) (A)
                 (A) (A) (A) (A) (A) (A) (A) (A) (A) (A) (A) (A)
                 (A) (A) (A) (A) (A) (A) (A) (A) (A) (A) (A) (A)
                 (A) (A) (A) (A) (A) (A) (A) (A) (A) (A) (A) (A)
                 (A) (A) (A) (A) (A) (A) (A) (A) (A) (A) (A) (A)
                 (A) (A) (A) (A) (A) (A) (A) (A) (A) (A) (A) (A)
                 (A) (A) (A) (A) (A) (A) (A) (A) (A) (A) (A) (A)
                 (A) (A) (A) (A) (A) (A) (A) (A) (A) (A) (A) (A)
                 (A) (A) (A) (A) (A) (A) (A) (A) (A) (A) (A) (A)
                 (A) (A) (A) (A) (A) (A) (A) (A) (A) (A) (A) (A)
                 (A) (A) (A) (A) (A) (A) (A) (A) (A) (A) (A) (A)
                 (A) (A) (A) (A) (A) (A) (A) (A) (A) (A) (A) (A)
                 (A) (A) (A) (A) (A) (A) (A) (A) (A) (A) (A) (A)
 Harris functional with IExCor=  402 diagonalized for initial guess.
 ExpMin= 1.03D-01 ExpMax= 8.59D+03 ExpMxC= 1.30D+03 IAcc=1 IRadAn=         1 AccDes= 0.00D+00
 HarFok:  IExCor=  402 AccDes= 0.00D+00 IRadAn=         1 IDoV= 1
 ScaDFX=  1.000000  1.000000  1.000000  1.000000
 FoFCou: FMM=F IPFlag=           0 FMFlag=      100000 FMFlg1=           0
         NFxFlg=           0 DoJE=T BraDBF=F KetDBF=T FulRan=T
         Omega=  0.000000  0.000000  1.000000  0.000000  0.000000 ICntrl=     500 IOpCl=  0
         NMat0=    1 NMatS0=    1 NMatT0=    0 NMatD0=    1 NMtDS0=    0 NMtDT0=    0
         I1Cent=           4 NGrid=           0.
 Petite list used in FoFCou.
 Requested convergence on RMS density matrix=1.00D-08 within 128 cycles.
 Requested convergence on MAX density matrix=1.00D-06.
 Requested convergence on             energy=1.00D-06.
 No special actions if energy rises.
 Keep R1 ints in memory in canonical form, NReq=1033417461.
 Integral accuracy reduced to 1.0D-05 until final iterations.
 Initial convergence to 1.0D-05 achieved.  Increase integral accuracy.
 SCF Done:  E(RB3LYP) =  -687.334995886     A.U. after   13 cycles
             Convg  =    0.8572D-08             -V/T =  2.0031
 Calling FoFJK, ICntrl=      2127 FMM=F ISym2X=0 I1Cent= 0 IOpClX= 0 NMat=1 NMatS=1 NMatT=0.
 ***** Axes restored to original set *****
 -------------------------------------------------------------------
 Center     Atomic                   Forces (Hartrees/Bohr)
 Number     Number              X              Y              Z
 -------------------------------------------------------------------
      1        6          -0.001405624   -0.002385008    0.005949292
      2        8           0.001475787    0.000640402   -0.005197709
      3        1          -0.000235092    0.000270540   -0.000289136
      4        1           0.002127517    0.000930050   -0.003493127
      5        1           0.003557596    0.002743867   -0.004066509
      6        6          -0.008603161   -0.006794617    0.008903660
      7        8           0.004636030    0.001621324   -0.007252070
      8        6           0.002922492    0.006041005   -0.006929466
      9        6           0.002533775   -0.004753010    0.003104163
     10        6           0.000878978    0.002341410   -0.003539901
     11        6          -0.001072908   -0.002099260   -0.006778136
     12        1           0.001550673    0.000428830    0.002157547
     13        1          -0.001150464    0.001110069    0.000601559
     14        8           0.002867852   -0.001725063    0.003878962
     15        1          -0.000998977    0.000492874    0.000047941
     16        1          -0.001098946    0.000339197   -0.000247831
     17        8           0.000976208   -0.000047150   -0.000118963
     18        1           0.000448792   -0.001213433   -0.001407570
     19        1           0.000526423    0.000755147    0.001004963
     20        8          -0.004263332   -0.000116492    0.009029049
     21        1          -0.000785442    0.001359638   -0.000644642
     22        1          -0.004451413    0.001659682    0.001541417
     23        8          -0.001420616   -0.003959658    0.002543187
     24        1           0.000983853    0.002359659    0.001203321
 -------------------------------------------------------------------
 Cartesian Forces:  Max     0.009029049 RMS     0.003355244

 GradGradGradGradGradGradGradGradGradGradGradGradGradGradGradGradGradGrad
 Berny optimization.
 Using GEDIIS/GDIIS optimizer.
 Internal  Forces:  Max     0.018096857 RMS     0.003827943
 Search for a local minimum.
 Step number   2 out of a maximum of  125
 All quantities printed in internal units (Hartrees-Bohrs-Radians)
 Mixed Optimization -- RFO/linear search
 Update second derivatives using D2CorX and points    1    2
 DE= -1.10D-02 DEPred=-2.07D-02 R= 5.28D-01
 SS=  1.41D+00  RLast= 5.07D-01 DXNew= 5.0454D-01 1.5196D+00
 Trust test= 5.28D-01 RLast= 5.07D-01 DXMaxT set to 5.05D-01
 ITU=  1  0
 Use linear search instead of GDIIS.
     Eigenvalues ---    0.00237   0.00315   0.00384   0.00400   0.00475
     Eigenvalues ---    0.00552   0.01325   0.01366   0.01374   0.01396
     Eigenvalues ---    0.01513   0.04008   0.04100   0.04446   0.04806
     Eigenvalues ---    0.04881   0.05260   0.05433   0.05947   0.06535
     Eigenvalues ---    0.06944   0.07250   0.07494   0.09054   0.10833
     Eigenvalues ---    0.11109   0.13584   0.13841   0.15685   0.16000
     Eigenvalues ---    0.16000   0.16000   0.16013   0.16075   0.17086
     Eigenvalues ---    0.19834   0.20034   0.20089   0.21554   0.22039
     Eigenvalues ---    0.22343   0.24649   0.28045   0.28479   0.29186
     Eigenvalues ---    0.29523   0.30678   0.33885   0.34081   0.34125
     Eigenvalues ---    0.34211   0.34253   0.34400   0.34455   0.37109
     Eigenvalues ---    0.41109   0.41762   0.41966   0.42417   0.44529
     Eigenvalues ---    0.52349   0.52838   0.52881   0.52902   0.52957
     Eigenvalues ---    0.86711
 RFO step:  Lambda=-6.30724354D-03 EMin= 2.36647817D-03
 Quartic linear search produced a step of -0.18084.
 Iteration  1 RMS(Cart)=  0.09881423 RMS(Int)=  0.00250923
 Iteration  2 RMS(Cart)=  0.00463509 RMS(Int)=  0.00031943
 Iteration  3 RMS(Cart)=  0.00000883 RMS(Int)=  0.00031939
 Iteration  4 RMS(Cart)=  0.00000000 RMS(Int)=  0.00031939
 Variable       Old X    -DE/DX   Delta X   Delta X   Delta X     New X
                                 (Linear)    (Quad)   (Total)
    R1        2.68424  -0.00569  -0.00237  -0.00553  -0.00790   2.67634
    R2        2.07700   0.00160  -0.00209   0.00795   0.00586   2.08285
    R3        2.06162   0.00484   0.00043   0.01022   0.01064   2.07227
    R4        2.87195   0.00111  -0.00106   0.00502   0.00396   2.87591
    R5        1.81770  -0.00035   0.00362  -0.00802  -0.00439   1.81330
    R6        2.28421  -0.00773   0.00793  -0.02341  -0.01548   2.26873
    R7        2.94648  -0.00518  -0.01079   0.00809  -0.00270   2.94379
    R8        2.92264  -0.01171  -0.00354  -0.02483  -0.02837   2.89427
    R9        2.06426   0.00052   0.00099  -0.00083   0.00016   2.06442
   R10        2.71051  -0.00140  -0.00414   0.00586   0.00173   2.71223
   R11        2.92855  -0.00107  -0.00327   0.00368   0.00041   2.92896
   R12        2.08402  -0.00019  -0.00175   0.00312   0.00137   2.08540
   R13        2.70719  -0.00087  -0.00273   0.00396   0.00123   2.70842
   R14        2.87958   0.00133   0.00176  -0.00002   0.00175   2.88133
   R15        2.08183   0.00093  -0.00203   0.00629   0.00426   2.08610
   R16        2.67401  -0.00251   0.00421  -0.01345  -0.00925   2.66477
   R17        2.07832   0.00098  -0.00162   0.00558   0.00396   2.08228
   R18        2.07478   0.00017  -0.00155   0.00356   0.00201   2.07679
   R19        2.69747  -0.00417  -0.00117  -0.00551  -0.00668   2.69080
   R20        1.81838  -0.00093   0.00345  -0.00855  -0.00509   1.81328
   R21        1.82623  -0.00085   0.00217  -0.00577  -0.00360   1.82263
   R22        1.81582  -0.00093   0.00377  -0.00920  -0.00542   1.81040
   R23        1.82428   0.00024   0.00241  -0.00462  -0.00221   1.82207
    A1        1.93468   0.00177  -0.00718   0.03134   0.02426   1.95894
    A2        1.95113   0.00138  -0.01035   0.03217   0.02186   1.97299
    A3        1.89322   0.00184   0.00610  -0.00196   0.00410   1.89732
    A4        1.89735  -0.00206   0.00528  -0.03290  -0.02778   1.86957
    A5        1.88501  -0.00129   0.00460  -0.01578  -0.01137   1.87364
    A6        1.90106  -0.00177   0.00180  -0.01500  -0.01339   1.88767
    A7        1.86965  -0.00029   0.00118  -0.00374  -0.00255   1.86710
    A8        2.08318   0.01366   0.00629   0.03068   0.03619   2.11937
    A9        2.15795  -0.01810  -0.02078  -0.01470  -0.03623   2.12172
   A10        2.04189   0.00446   0.01447  -0.01472  -0.00097   2.04091
   A11        2.11947  -0.01563  -0.01878  -0.03234  -0.05071   2.06876
   A12        1.80662   0.00388   0.01138   0.00170   0.01279   1.81941
   A13        1.87306   0.00817   0.00256   0.01320   0.01691   1.88998
   A14        1.86479   0.00460   0.01159   0.00430   0.01534   1.88013
   A15        1.93953   0.00258  -0.00903   0.01599   0.00754   1.94708
   A16        1.83658  -0.00232   0.00555  -0.00076   0.00455   1.84113
   A17        1.97718  -0.00361   0.00694  -0.03176  -0.02438   1.95280
   A18        1.86265   0.00284  -0.00063   0.00832   0.00807   1.87072
   A19        1.90702  -0.00792   0.00383  -0.05455  -0.05026   1.85676
   A20        1.85642  -0.00029   0.00379   0.00977   0.01320   1.86962
   A21        1.92957   0.00937  -0.00209   0.04315   0.04004   1.96960
   A22        1.92939  -0.00036  -0.01305   0.02742   0.01354   1.94293
   A23        1.94043  -0.00075   0.00211  -0.00370  -0.00156   1.93886
   A24        1.89067  -0.00156   0.00757  -0.03496  -0.02754   1.86313
   A25        1.97709  -0.00109  -0.01054   0.01288   0.00220   1.97929
   A26        1.82976   0.00213  -0.00996   0.04312   0.03322   1.86298
   A27        1.86113   0.00216   0.00554   0.00460   0.01008   1.87121
   A28        1.95957  -0.00060   0.00553  -0.01876  -0.01381   1.94576
   A29        1.89488  -0.00036   0.00807  -0.01699  -0.00897   1.88591
   A30        1.92759  -0.00247   0.00452  -0.02373  -0.01925   1.90835
   A31        1.87791   0.00209   0.00385   0.00052   0.00436   1.88228
   A32        1.90996   0.00026   0.00019  -0.00339  -0.00307   1.90689
   A33        1.92321  -0.00021  -0.00780   0.01902   0.01136   1.93457
   A34        1.92982   0.00069  -0.00919   0.02393   0.01484   1.94465
   A35        1.87507   0.00088  -0.00127   0.00677   0.00550   1.88057
   A36        1.87893  -0.00128   0.00036  -0.00691  -0.00655   1.87238
   A37        1.89659   0.00132  -0.00223   0.01077   0.00855   1.90513
   A38        1.86600   0.00196   0.00313   0.00337   0.00650   1.87250
    D1        1.07032  -0.00020  -0.00418   0.00784   0.00348   1.07380
    D2       -1.04959   0.00025   0.00043   0.00572   0.00631  -1.04328
    D3        3.13713   0.00039   0.00081   0.00575   0.00658  -3.13948
    D4        0.01451   0.00021  -0.00797   0.03376   0.02618   0.04070
    D5       -3.10653  -0.00077  -0.00699  -0.04086  -0.04819   3.12846
    D6        2.11252   0.00263  -0.01031   0.06113   0.05103   2.16355
    D7       -1.00852   0.00166  -0.00934  -0.01349  -0.02335  -1.03186
    D8       -2.11287  -0.00152  -0.00014   0.00485   0.00521  -2.10766
    D9        1.04928  -0.00250   0.00084  -0.06976  -0.06917   0.98011
   D10        0.22546   0.00053  -0.01391   0.07817   0.06375   0.28922
   D11        2.31546   0.00013  -0.00183   0.06507   0.06298   2.37844
   D12       -2.03091   0.00228   0.01087   0.06992   0.08036  -1.95055
[...]
 17,-0.00030168,-0.00000172,0.00006555,-0.00002833,0.00004231,0.0000562
 1,0.00014880,0.00014880,-0.00009013,0.00006833,-0.00598404,-0.00368666
 ,-0.00342370,0.00164266,0.00116007,0.00045455,-0.25043981,-0.08615356,
 -0.06651608,-0.01777634,-0.00893651,-0.00714739,0.00005285,-0.00129750
 ,-0.00224180,0.00024156,0.00042730,0.00003192,-0.00003410,-0.00000374,
 0.00002073,0.00022257,-0.00005121,-0.00020479,0.00005161,0.00003253,-0
 .00005613,-0.00000919,-0.00001788,0.00001757,0.26572289,-0.00023429,-0
 .00059477,0.00049363,-0.00006120,0.00026126,0.00035719,-0.00005227,-0.
 00003022,0.00007877,0.00013609,-0.00018630,-0.00004522,-0.00012869,0.0
 0006081,0.00006559,0.00889424,0.00469927,0.00309857,-0.00067750,-0.000
 10822,0.00060198,-0.07472195,-0.07651420,-0.02450418,0.00435496,0.0042
 4049,0.00333275,-0.00029787,0.00038431,-0.00039726,0.00022842,0.000055
 24,0.00007245,0.00001979,-0.00000851,0.00001130,0.00002342,-0.00001570
 ,-0.00000529,-0.00005896,0.00001416,0.00007798,0.00001144,-0.00000221,
 0.00001914,0.09248228,0.10134663,0.00230284,0.00206234,-0.00139038,0.0
 0022109,-0.00042986,-0.00107001,0.00012803,0.00013731,-0.00022182,0.00
 002046,0.00055365,0.00065302,-0.00003868,-0.00062722,-0.00067211,-0.02
 941214,-0.00922087,-0.01231201,0.00366609,0.00051351,0.00116970,-0.073
 76812,-0.02955954,-0.06776753,0.01735499,0.00849783,0.00643073,0.00121
 151,0.00169076,0.00035548,0.00008339,-0.00017302,0.00013115,0.00001370
 ,0.00001875,-0.00001567,-0.00008922,0.00001785,0.00009900,-0.00010576,
 0.00005331,0.00017249,0.00000438,0.00000810,0.00000685,0.07181866,0.02
 903446,0.07582195,-0.00380368,-0.00162489,0.00024023,0.00094393,0.0004
 5038,0.00032793,-0.00023634,-0.00006242,0.00013351,0.00102244,0.000646
 53,-0.00093213,0.00080668,-0.00051275,0.00001977,0.00189194,0.00995047
 ,0.00347036,0.00093452,0.00157576,-0.00244379,-0.09323694,-0.00923974,
 -0.00559712,-0.00926381,0.02603230,0.00119879,-0.00021228,-0.00059141,
 -0.00162459,-0.00022336,0.00004350,-0.00037200,0.00005588,-0.00021888,
 0.00001869,0.00015778,0.00000223,-0.00015208,0.00024756,0.00001597,0.0
 0057538,-0.00000248,-0.00001181,-0.00007079,0.00844043,-0.03237517,0.0
 0043830,0.52662656,-0.00062690,0.00147454,0.00096160,0.00006989,0.0006
 5358,-0.00001072,-0.00002962,0.00000672,0.00004696,0.00120810,0.000639
 43,0.00096226,-0.00061986,-0.00001014,0.00133832,0.00295830,-0.0301180
 3,-0.01243545,0.00296388,-0.00721542,0.01203791,0.03740636,-0.20211486
 ,-0.00303621,0.00657507,-0.03615186,-0.00399960,0.00130717,-0.00427796
 ,0.00311943,-0.00059315,0.00018536,0.00015991,-0.00022440,0.00055973,0
 .00015945,0.00020845,0.00007438,-0.00001012,0.00007269,0.00024474,-0.0
 0110024,-0.00007443,-0.00010862,-0.00003006,0.00216861,-0.02814267,-0.
 00245504,0.11949262,0.39559233,0.00146422,-0.00434830,-0.00105803,-0.0
 0093055,0.00375937,-0.00085681,0.00022300,-0.00021598,0.00103834,0.001
 74913,0.00069874,-0.00085659,-0.00261925,0.00086134,-0.00111516,-0.002
 39210,0.02796388,0.01197838,-0.00269748,0.00664010,-0.00748817,0.00105
 871,-0.00942494,-0.06351416,0.00561956,-0.02867632,0.00301781,-0.00197
 061,0.00606554,0.00129849,0.00004786,-0.00043496,0.00085063,0.00007951
 ,-0.00014261,-0.00018973,-0.00010015,0.00012403,0.00003762,-0.00014895
 ,-0.00022404,-0.00058197,0.00003959,0.00006863,0.00017712,0.00271698,-
 0.00862051,0.00184650,0.02196874,0.02252162,0.07266248,0.00061902,0.00
 006286,0.00025601,-0.00029148,0.00029311,-0.00029217,0.00007910,-0.000
 01646,0.00006724,0.00037000,-0.00010282,-0.00056789,-0.00052309,-0.000
 20291,0.00015958,0.00013619,0.00039950,0.00060295,-0.00044320,0.001421
 47,-0.00077435,0.00507208,-0.00163240,-0.00124459,0.00278147,0.0055125
 3,0.00128748,-0.00028154,-0.00100949,0.00043995,0.00029564,0.00020231,
 0.00016178,-0.00003920,0.00003581,0.00001724,-0.00016748,-0.00002274,0
 .00018498,-0.00016661,-0.00003679,-0.00019640,0.00002824,0.00002181,0.
 00003442,0.00081993,0.00118212,0.00147780,-0.42976599,-0.17195750,-0.0
 3133878,0.42420422,-0.00048000,-0.00065874,0.00051991,0.00011814,0.000
 30186,-0.00053203,0.00000939,0.00006901,0.00007581,0.00008350,0.000387
 25,0.00032393,0.00011516,0.00012641,0.00011195,-0.00087236,-0.00105179
 ,0.00115889,0.00049309,0.00060435,-0.00028697,-0.04253804,-0.02914186,
 -0.00502861,-0.00322622,-0.00198320,-0.00202246,-0.00022189,0.00023175
 ,-0.00086076,0.00003570,-0.00018315,-0.00022153,0.00001490,-0.00004951
 ,-0.00001682,0.00006250,-0.00000613,-0.00010395,0.00006506,0.00003168,
 0.00042323,0.00000221,0.00002148,-0.00003706,0.00202057,-0.00687489,0.
 00045192,-0.12472841,-0.10180419,-0.00963614,0.16981832,0.13518958,0.0
 0147434,0.00131823,-0.00158733,-0.00049421,-0.00126255,0.00111193,0.00
 006747,0.00005317,-0.00032470,-0.00160678,-0.00010786,-0.00117254,0.00
 018303,0.00027714,-0.00002835,0.00155993,0.00290841,0.00250207,-0.0002
 6548,-0.00105625,-0.00103017,-0.00244708,-0.00036515,-0.00004754,-0.00
 278448,-0.00254440,-0.00012553,-0.00013804,-0.00224372,-0.00049681,0.0
 0004040,-0.00002949,-0.00031335,-0.00004223,0.00011316,0.00006606,0.00
 011671,-0.00006406,-0.00010634,0.00008851,0.00017737,0.00040448,-0.000
 01433,-0.00003710,-0.00006288,0.00028645,-0.00223957,0.00020718,-0.027
 34513,-0.01213446,-0.01104566,0.03143623,0.01263535,0.01532547,0.00011
 305,-0.00013240,0.00000795,-0.00000822,-0.00004995,-0.00000238,-0.0000
 1088,-0.00002416,0.00001216,-0.00007526,-0.00007170,-0.00005138,0.0000
 7044,-0.00002533,-0.00016384,0.00030337,0.00282573,-0.00023386,0.00022
 494,-0.00186822,-0.00111574,-0.00309400,0.02094346,-0.00387602,-0.0727
 8226,0.07968998,-0.01419759,-0.00043295,0.00903179,0.00133579,0.000534
 69,0.00026295,0.00066728,0.00028991,-0.00025105,0.00018618,-0.00005527
 ,-0.00020594,-0.00019819,-0.00017788,-0.00008497,0.00001301,0.00003120
 ,-0.00003290,0.00004430,0.00008326,-0.00070613,-0.00050733,-0.00294618
 ,0.00355890,0.00460222,-0.00106726,-0.00045273,-0.00015553,0.08091300,
 -0.00002032,-0.00000844,-0.00002702,-0.00001838,0.00006127,-0.00009869
 ,-0.00000060,0.00002306,0.00001445,0.00005701,0.00002088,0.00006568,-0
 .00002216,0.00001318,0.00006029,0.00036467,-0.00255649,0.00114637,-0.0
 0111369,0.00157795,0.00210522,0.00571247,-0.00857877,-0.00118659,0.070
 85539,-0.27766812,0.03773857,0.00158494,-0.00207867,0.00216014,0.00032
 304,-0.00082708,-0.00100117,-0.00033755,0.00109223,-0.00037659,0.00015
 205,0.00014981,-0.00009375,-0.00004953,0.00044377,-0.00033294,-0.00004
 024,0.00004758,0.00005141,0.00084574,0.00001652,-0.00065485,0.00146084
 ,0.00057484,-0.00040781,-0.00063040,0.00031799,0.00059382,-0.07179398,
 0.30748836,0.00036972,0.00037825,0.00009095,-0.00000931,0.00001408,0.0
 0002694,0.00000651,0.00002675,-0.00001768,0.00003243,0.00011909,0.0001
 4983,-0.00008015,-0.00002631,0.00011609,0.00145912,-0.00405445,-0.0000
 6734,-0.00113887,0.00177032,-0.00045305,0.00668857,-0.01974734,0.00258
 061,-0.01419109,0.04325179,-0.05797804,-0.00674393,0.02651930,-0.00091
 026,0.00001120,0.00179540,-0.00028905,0.00017543,-0.00085031,-0.000661
 70,0.00011939,-0.00017377,-0.00011996,0.00024663,-0.00051379,0.0010029
 6,0.00010838,0.00007846,-0.00003493,0.00015835,0.00048064,0.00015477,0
 .00395589,-0.00360848,-0.00377861,-0.00000755,0.00043079,0.00035071,0.
 01143034,-0.04096714,0.06380151,-0.00042042,-0.00017422,0.00012836,0.0
 0047344,-0.00003089,0.00112809,-0.00016992,-0.00005449,-0.00001514,0.0
 0006982,0.00022392,0.00003333,0.00021583,-0.00010269,-0.00002185,-0.00
 147688,0.00366774,-0.00552080,0.00091417,-0.00246210,0.00132271,-0.042
 91154,-0.01962707,0.00477612,-0.14238562,-0.04558352,-0.03922946,-0.02
 671152,-0.01477452,-0.01178017,-0.00312800,0.00006819,0.00151525,0.000
 01057,0.00002850,-0.00016738,0.00166505,0.00048499,-0.00148092,0.00167
 957,0.00028669,-0.00060048,-0.00000770,-0.00026869,-0.00035232,-0.0033
 1374,0.00149789,0.00475285,-0.00227437,-0.00441038,0.00018612,0.000484
 17,-0.00190888,-0.00143746,0.00022376,-0.00752408,-0.00038320,0.246658
 76,-0.00013416,-0.00055413,0.00055941,0.00015012,0.00047757,0.00016708
 ,-0.00006644,-0.00004812,0.00009689,0.00045138,0.00020536,0.00018625,-
 0.00006024,0.00004458,0.00017194,-0.00055157,-0.00010208,-0.00307712,-
 0.00039150,0.00074212,0.00173824,-0.01122591,-0.01039260,0.00084757,-0
 .07255742,-0.11842747,-0.01294407,-0.01032604,-0.01175744,-0.00247614,
 0.00012586,0.00054309,0.00150156,-0.00016434,0.00056789,0.00021945,0.0
 0000638,-0.00020892,-0.00029757,-0.00019630,0.00042626,-0.00135914,0.0
 0003313,-0.00008881,0.00002357,-0.00060653,0.00152376,0.00081256,0.009
 00980,0.00660806,-0.00155541,-0.00417432,0.00317812,0.00368578,-0.0359
 0716,-0.01912637,-0.00674565,0.10553284,0.36839904,0.00006463,-0.00088
 160,0.00096573,0.00016454,0.00053571,-0.00076750,-0.00005139,-0.000035
 00,0.00020730,0.00029520,0.00069982,0.00038433,0.00017277,0.00010290,-
 0.00011736,-0.00186090,0.00025451,0.00186733,0.00020984,0.00046278,-0.
 00071262,0.01647670,0.01064061,0.00909036,-0.00794328,0.01678766,-0.08
 828930,-0.03240508,-0.01839314,-0.00655674,0.00167729,0.00132692,0.001
 59254,0.00003822,-0.00061563,-0.00017271,-0.00138613,-0.00061846,-0.00
 002094,-0.00092709,-0.00066125,-0.00120265,0.00026166,0.00016683,0.000
 30379,0.00354196,-0.00150720,-0.00284549,0.00440732,0.00125712,0.00194
 764,-0.00295043,0.00306149,-0.00070215,0.00649891,0.00416380,0.0039421
 9,0.06561750,-0.23142577,0.35792247,0.00003850,-0.00013718,0.00009384,
 -0.00007010,0.00010094,-0.00018929,0.00003091,0.00000186,0.00003449,0.
 00006144,0.00001181,0.00001980,-0.00006200,0.00001466,0.00003923,0.000
 01622,-0.00006300,-0.00022763,0.00000383,0.00024072,0.00000802,-0.0036
 4116,-0.00543933,-0.00060706,-0.00391659,-0.02638140,0.02587186,-0.000
 99151,-0.00947344,-0.00191571,0.00153823,0.00040284,-0.00065467,-0.000
 32723,0.00026515,0.00022296,-0.00037463,-0.00019840,0.00047518,-0.0006
 7529,0.00001065,-0.00000880,0.00003781,0.00012414,0.00002797,-0.000896
 79,0.00061008,0.00073281,0.00092686,0.00159191,-0.00167936,-0.00084999
 ,0.00090132,0.00284650,-0.00258361,-0.00047937,-0.00071970,-0.03115469
 ,0.01216801,-0.04112372,0.04143542,-0.00001413,0.00000676,0.00000903,0
 .00001985,-0.00001712,-0.00017119,-0.00000590,0.00002020,0.00000686,-0
 .00008681,0.00015930,0.00011196,0.00005443,0.00003694,-0.00004441,-0.0
 0003326,-0.00055437,0.00053369,0.00004133,0.00006624,0.00014560,0.0009
 9435,0.00123863,-0.00040935,-0.00655575,-0.02715942,0.01598387,-0.0014
 2648,0.00181548,0.00060780,-0.00080629,-0.00119820,-0.00086931,0.00011
 661,0.00016774,-0.00005144,0.00073159,0.00011255,-0.00097860,0.0006264
 2,0.00022557,0.00099734,-0.00003324,-0.00002275,-0.00010624,0.00052466
 ,-0.00019669,-0.00022680,0.00074464,-0.00098172,0.00030855,0.00035855,
 0.00108174,-0.00151089,-0.00473093,-0.00223790,-0.00046577,-0.01260754
 ,-0.22895467,0.21525921,0.02018529,0.26007276,0.00010919,0.00023166,-0
 .00026578,-0.00002020,-0.00018641,0.00030721,0.00002556,0.00001756,-0.
 00007171,-0.00006644,0.00000967,0.00002617,0.00002959,-0.00000699,-0.0
 0004067,-0.00022356,0.00021941,-0.00056807,0.00006411,-0.00044563,0.00
 027982,0.00005828,0.00152760,-0.00031840,0.00302630,-0.00515863,0.0075
 6783,-0.00560317,-0.00775596,-0.00012869,-0.00132644,-0.00063460,-0.00
 054661,0.00010966,0.00063816,0.00020743,0.00086951,-0.00047196,-0.0004
 4116,0.00054524,0.00053066,0.00017696,-0.00004034,-0.00016282,-0.00018
 733,-0.00034577,-0.00027394,0.00021915,-0.00164378,-0.00033481,0.00012
 649,0.00299196,-0.00105136,-0.00245789,-0.00263672,-0.00315306,-0.0011
 8425,-0.01356950,0.24383487,-0.26609409,0.01216585,-0.22944431,0.26382
 188,-0.00016819,-0.00014000,0.00008530,0.00003776,0.00005299,0.0000487
 0,-0.00001973,-0.00001202,0.00001240,0.00002275,0.00002189,-0.00001138
 ,0.00001229,0.00001654,0.00002802,0.00030963,0.00043642,-0.00007696,0.
 00007884,-0.00007782,0.00005599,0.00012277,-0.00033159,0.00142964,-0.0
 0943533,-0.00360760,0.00089717,-0.26680719,-0.07825810,-0.02595842,-0.
 02302762,-0.00693028,-0.00107427,0.00022592,0.00055372,0.00002577,-0.0
 0125485,0.00227894,0.00240634,0.00257063,-0.00018122,-0.00126259,0.000
 54514,0.00001560,-0.00045587,0.00117141,0.00011251,-0.00015585,0.00048
 876,0.00010658,-0.00021961,-0.00019742,0.00015332,0.00029883,-0.000040
 43,0.00028155,-0.00050135,0.00041355,0.00036260,-0.00208167,0.00029709
 ,0.00048890,0.00040652,0.28649749,-0.00003609,-0.00003538,0.00005955,0
 .00000981,0.00000747,0.00001947,-0.00000882,-0.00000396,0.00000482,0.0
 0001059,-0.00000094,-0.00000975,-0.00000852,-0.00000113,0.00000876,0.0
 0015204,0.00022940,-0.00004435,0.00003867,-0.00006931,-0.00000394,-0.0
 0039564,-0.00022148,0.00037463,0.00101035,0.00400857,-0.00232700,-0.07
 395105,-0.07685683,-0.00957680,0.01580982,0.00735426,0.00027873,-0.000
 48578,0.00063952,0.00076944,0.00175822,-0.00101789,-0.00301783,-0.0012
 0440,0.00016801,0.00111514,0.00017376,-0.00005998,0.00034845,0.0003778
 7,0.00021960,-0.00017398,0.00025840,0.00044439,-0.00050880,0.00004243,
 -0.00006605,0.00036496,-0.00063121,-0.00024403,-0.00107290,0.00096522,
 0.00207152,0.00109627,0.00110258,-0.00140550,0.00144774,0.08778579,0.0
 9512697,-0.00010342,-0.00014764,0.00011586,0.00004084,0.00003663,0.000
 09310,-0.00001578,-0.00001009,0.00001507,0.00001033,0.00002493,0.00001
 750,0.00001029,0.00000728,0.00000484,-0.00001164,0.00047459,0.00012105
 ,0.00018623,-0.00008492,-0.00004282,-0.00157037,-0.00106725,0.00087141
 ,-0.02663097,-0.01077549,-0.00221126,-0.02682492,-0.01049958,-0.053447
 29,0.02246059,0.00608025,0.00105638,-0.00060470,-0.00000199,0.00035843
 ,0.00239205,-0.00183349,-0.00288905,-0.00075616,0.00074256,0.00201046,
 -0.00026865,0.00005007,0.00033088,0.00085156,0.00007126,-0.00059046,0.
 00062389,-0.00004654,-0.00012241,-0.00039485,0.00027450,0.00015970,0.0
 0032865,0.00081974,0.00003086,-0.00391855,-0.00135077,-0.00647352,0.00
 023714,0.00092945,-0.00031228,0.02526815,0.00925906,0.05823509,-0.0002
 9395,-0.00011209,0.00008228,0.00009841,0.00001207,-0.00010657,-0.00005
 286,-0.00000607,0.00002146,-0.00000882,0.00005720,-0.00000490,0.000085
 98,0.00001338,-0.00003380,0.00012708,0.00010638,0.00012435,0.00030988,
 -0.00021610,-0.00013043,-0.00075220,0.00177091,-0.00045775,-0.00478199
 ,0.00638805,-0.00835161,-0.08393030,0.00967164,0.01758289,-0.00066061,
 0.02983297,-0.00624833,-0.00248813,0.00360434,0.00412571,0.00259893,-0
 .00041291,-0.00238946,0.00178347,-0.00092809,0.00046932,0.00016843,-0.
 00012674,-0.00019399,0.00059900,0.00004917,-0.00032980,0.00206928,-0.0
 0083918,0.00236077,-0.00090462,0.00025721,0.00086579,0.00031889,0.0005
 1950,-0.00140849,0.00134738,0.00995281,-0.00838958,0.00375916,-0.00020
 700,0.00455124,0.00715410,-0.03130385,0.00911371,0.33002763,0.00026075
 ,-0.00006016,0.00017122,-0.00000750,0.00018699,0.00026428,0.00001438,-
 0.00002600,0.00002198,0.00014528,0.00006403,0.00012362,-0.00012812,-0.
 00001050,0.00009649,-0.00068440,-0.00033352,-0.00057947,-0.00037194,0.
 00094388,0.00071607,0.00171940,-0.00536390,-0.00082482,0.00363473,-0.0
 3199350,0.01445461,-0.02080414,-0.18880782,0.04298660,0.00624313,-0.03
 711475,0.00490498,0.00240649,-0.00148032,-0.00391811,-0.00073333,0.002
 14035,0.00072887,-0.00088280,0.00218041,-0.00151708,-0.00015253,0.0000
 7327,0.00062092,0.00018133,0.00012141,-0.00053195,-0.00015161,0.006356
 02,-0.00297106,0.00071008,-0.00080765,0.00208343,0.00107730,0.00158372
 ,0.00382486,-0.00281192,0.00490310,-0.00072812,0.00372548,-0.00269566,
 -0.00065369,-0.00246806,-0.03191318,0.00806413,-0.14473786,0.40436281,
 -0.00004430,-0.00038486,0.00044576,-0.00004694,0.00030432,-0.00069929,
 -0.00001547,-0.00002269,0.00012515,0.00011524,0.00008966,0.00001290,-0
 .00008579,0.00002232,0.00004306,-0.00015048,0.00036808,0.00132678,0.00
 028807,0.00028572,-0.00107280,-0.00013346,-0.00332738,0.00222556,-0.00
 659642,0.04032635,-0.01002656,0.01927015,0.01638588,-0.08348805,0.0000
 1262,-0.02480591,0.00548456,0.00287362,-0.00312031,-0.00287971,-0.0010
 2090,0.00080041,0.00105528,0.00032398,-0.00157357,0.00219490,0.0002573
 1,0.00011025,0.00068092,0.00052040,0.00012400,-0.00038061,0.00229671,0
 .00071852,-0.00815242,0.00039805,0.00072817,0.00147987,-0.00231199,-0.
 00044791,-0.00631575,-0.00145246,0.00770854,-0.00184115,0.00474136,-0.
 00099805,-0.00248571,0.00025598,0.00061178,0.00280835,-0.21945305,0.05
 506316,0.27532706,0.00015358,0.00008976,-0.00007229,-0.00003658,-0.000
 04518,0.00013157,0.00002993,0.00000491,-0.00002275,-0.00002526,-0.0000
 0625,-0.00002051,-0.00000611,-0.00000566,-0.00000458,-0.00025408,-0.00
 000764,-0.00019842,-0.00005750,-0.00003843,0.00015947,0.00066655,0.000
 12502,-0.00044512,0.00081130,0.00002252,0.00028666,0.00042391,-0.00364
 231,-0.00071636,0.00035762,-0.00023520,-0.00003171,0.00055393,-0.00004
 961,0.00000011,0.00051033,0.00003857,-0.00015673,-0.00008961,-0.000106
 24,-0.00021663,-0.00002131,0.00000745,0.00005163,-0.00023449,-0.000288
 38,0.00017999,-0.00264722,-0.00031310,0.00198041,-0.00019218,0.0002781
 3,-0.00253344,0.00016769,-0.00012692,0.00042170,-0.00020166,-0.0014310
 1,-0.00030730,-0.00260188,0.00162071,0.00052290,0.00100261,-0.00147019
 ,-0.00042344,-0.25657413,0.15381585,0.19995777,0.25826454,-0.00002691,
 0.00004129,-0.00002517,-0.00001618,-0.00000519,-0.00023244,-0.00000409
 ,0.00001799,0.00001287,-0.00001658,0.00001884,0.00000684,0.00000971,0.
 00001857,-0.00000348,0.00007321,-0.00053472,0.00038718,0.00002400,0.00
 006918,-0.00016971,0.00028525,-0.00016792,0.00220525,0.00097947,0.0008
 5077,0.00096652,0.03161943,-0.02374486,-0.02429580,-0.00071713,-0.0080
 7254,0.00333462,0.00122212,-0.00078277,-0.00151188,-0.00015271,0.00027
 750,0.00042328,-0.00018676,0.00078192,0.00036149,-0.00007210,0.0000104
 3,-0.00004900,-0.00021443,-0.00026906,0.00020082,-0.00016635,-0.002488
 63,-0.00184491,-0.00027509,0.00108594,-0.00061531,-0.00042133,-0.00008
 528,-0.00046384,-0.00041499,-0.00002985,-0.00094946,0.00071468,0.00042
 011,0.00127684,-0.00066065,0.00162596,-0.00101668,0.11665424,-0.122309
 02,-0.08896648,-0.14823679,0.15327133,-0.00007847,0.00029015,-0.000380
 18,0.00009824,-0.00030800,0.00057673,-0.00001352,0.00000579,-0.0001071
 4,-0.00017853,-0.00004912,-0.00009151,0.00016603,-0.00001182,-0.000119
 35,-0.00008412,0.00025652,-0.00119194,0.00029457,-0.00123746,0.0006559
 0,-0.00015538,0.00678237,-0.00057639,-0.00166323,0.00150597,0.00140930
 ,-0.00700288,0.00635413,0.00480818,-0.00013622,0.00124988,-0.00008323,
 -0.00023314,0.00054988,0.00015785,-0.00021170,-0.00000458,0.00003867,-
 0.00006181,-0.00010126,0.00018039,-0.00000875,0.00009066,-0.00000584,-
 0.00012682,-0.00032655,-0.00000187,0.00050591,-0.00408138,0.00377823,-
 0.00174866,-0.00039826,-0.00210624,0.00032377,-0.00017196,-0.00043682,
 0.00046937,-0.00032208,-0.00242748,-0.00039111,0.00038299,0.00236971,0
 .00057916,0.00097658,-0.00013986,0.20820022,-0.12240091,-0.17586810,-0
 .19854295,0.11096846,0.16956098\\0.00001680,0.00001347,0.00000400,-0.0
 0001163,-0.00000481,-0.00000223,-0.00000098,-0.00000015,-0.00000092,-0
 .00000861,-0.00000865,0.00000853,-0.00000544,0.00000678,-0.00000507,-0
 .00000608,-0.00000313,-0.00000474,-0.00001732,-0.00000200,0.00000471,0
 .00003230,0.00000063,-0.00002324,-0.00001749,0.00000248,0.00002316,-0.
 00000654,-0.00000325,-0.00001505,0.00000050,0.00000233,0.00000289,-0.0
 0001145,-0.00000224,0.00000170,0.00000158,-0.00000972,0.00000166,-0.00
 000115,-0.00000137,-0.00000320,0.00000001,-0.00000030,-0.00000032,-0.0
 0000944,0.00000827,0.00000089,0.00000055,0.00000456,0.00001195,0.00001
 513,-0.00000219,-0.00000372,-0.00001231,-0.00000606,-0.00000407,-0.000
 00193,0.00000176,-0.00000473,0.00001602,-0.00000344,0.00000065,0.00000
 080,0.00000878,0.00000335,0.00001571,-0.00000066,0.00001069,0.00001097
 ,-0.00000109,-0.00000689\\\@


 In the beginning the Universe was created.
 This has made a lot of people very angry
 and been widely regarded as a bad move.
                               -D.Adams
 Job cpu time:  0 days  0 hours 25 minutes 32.3 seconds.
 File lengths (MBytes):  RWF=    219 Int=      0 D2E=      0 Chk=      7 Scr=      1
 Normal termination of Gaussian 09 at Mon Jan 22 19:56:46 2018.
