 Entering Gaussian System, Link 0=g09
 Input=R-S-R-Fructuose.inp
 Output=R-S-R-Fructuose.log
 Initial command:
 /usr/local/g09/l1.exe /home/g09scr/Gau-11644.inp -scrdir=/home/g09scr/
 Entering Link 1 = /usr/local/g09/l1.exe PID=     11646.
  
 Copyright (c) 1988,1990,1992,1993,1995,1998,2003,2009,2010,
            Gaussian, Inc.  All Rights Reserved.
  
 This is part of the Gaussian(R) 09 program.  It is based on
 the Gaussian(R) 03 system (copyright 2003, Gaussian, Inc.),
 the Gaussian(R) 98 system (copyright 1998, Gaussian, Inc.),
 the Gaussian(R) 94 system (copyright 1995, Gaussian, Inc.),
 the Gaussian 92(TM) system (copyright 1992, Gaussian, Inc.),
 the Gaussian 90(TM) system (copyright 1990, Gaussian, Inc.),
 the Gaussian 88(TM) system (copyright 1988, Gaussian, Inc.),
 the Gaussian 86(TM) system (copyright 1986, Carnegie Mellon
 University), and the Gaussian 82(TM) system (copyright 1983,
 Carnegie Mellon University). Gaussian is a federally registered
 trademark of Gaussian, Inc.
  
 This software contains proprietary and confidential information,
 including trade secrets, belonging to Gaussian, Inc.
  
 This software is provided under written license and may be
 used, copied, transmitted, or stored only in accord with that
 written license.
  
 The following legend is applicable only to US Government
 contracts under FAR:
  
                    RESTRICTED RIGHTS LEGEND
  
 Use, reproduction and disclosure by the US Government is
 subject to restrictions as set forth in subparagraphs (a)
 and (c) of the Commercial Computer Software - Restricted
 Rights clause in FAR 52.227-19.
  
 Gaussian, Inc.
 340 Quinnipiac St., Bldg. 40, Wallingford CT 06492
  
  
 ---------------------------------------------------------------
 Warning -- This program may not be used in any manner that
 competes with the business of Gaussian, Inc. or will provide
 assistance to any competitor of Gaussian, Inc.  The licensee
 of this program is prohibited from giving any competitor of
 Gaussian, Inc. access to this program.  By using this program,
 the user acknowledges that Gaussian, Inc. is engaged in the
 business of creating and licensing software in the field of
 computational chemistry and represents and warrants to the
 licensee that it is not a competitor of Gaussian, Inc. and that
 it will not use this program in any manner prohibited above.
 ---------------------------------------------------------------
  

 Cite this work as:
 Gaussian 09, Revision B.01,
 M. J. Frisch, G. W. Trucks, H. B. Schlegel, G. E. Scuseria, 
 M. A. Robb, J. R. Cheeseman, G. Scalmani, V. Barone, B. Mennucci, 
 G. A. Petersson, H. Nakatsuji, M. Caricato, X. Li, H. P. Hratchian, 
 A. F. Izmaylov, J. Bloino, G. Zheng, J. L. Sonnenberg, M. Hada, 
 M. Ehara, K. Toyota, R. Fukuda, J. Hasegawa, M. Ishida, T. Nakajima, 
 Y. Honda, O. Kitao, H. Nakai, T. Vreven, J. A. Montgomery, Jr., 
 J. E. Peralta, F. Ogliaro, M. Bearpark, J. J. Heyd, E. Brothers, 
 K. N. Kudin, V. N. Staroverov, T. Keith, R. Kobayashi, J. Normand, 
 K. Raghavachari, A. Rendell, J. C. Burant, S. S. Iyengar, J. Tomasi, 
 M. Cossi, N. Rega, J. M. Millam, M. Klene, J. E. Knox, J. B. Cross, 
 V. Bakken, C. Adamo, J. Jaramillo, R. Gomperts, R. E. Stratmann, 
 O. Yazyev, A. J. Austin, R. Cammi, C. Pomelli, J. W. Ochterski, 
 R. L. Martin, K. Morokuma, V. G. Zakrzewski, G. A. Voth, 
 P. Salvador, J. J. Dannenberg, S. Dapprich, A. D. Daniels, 
 O. Farkas, J. B. Foresman, J. V. Ortiz, J. Cioslowski, 
 and D. J. Fox, Gaussian, Inc., Wallingford CT, 2010.
 
 ******************************************
 Gaussian 09:  EM64L-G09RevB.01 12-Aug-2010
                22-Jan-2018 
 ******************************************
 %nproc=4
 Will use up to    4 processors via shared memory.
 %mem=60gb
 ------------------------------
 #B3LYP/6-311G** fopt test freq
 ------------------------------
 1/14=-1,18=20,19=15,26=3,38=1/1,3;
 2/9=110,12=2,14=103,17=6,18=5,40=1/2;
 3/5=4,6=6,7=101,11=2,16=1,25=1,30=1,71=1,74=-5/1,2,3;
 4//1;
 5/5=2,38=5/2;
 6/7=2,8=2,9=2,10=2,28=1/1;
 7//1,2,3,16;
 1/14=-1,18=20,19=15/3(2);
 2/9=110/2;
 99//99;
 2/9=110/2;
 3/5=4,6=6,7=101,11=2,16=1,25=1,30=1,71=1,74=-5/1,2,3;
 4/5=5,16=3/1;
 5/5=2,38=5/2;
 7//1,2,3,16;
 1/14=-1,18=20,19=15/3(-5);
 2/9=110/2;
 6/7=2,8=2,9=2,10=2,19=2,28=1/1;
 99/9=1/99;
 --------------------------
 Sugars/R-S-R-Fructuose.xyz
 --------------------------
 Symbolic Z-matrix:
 Charge =  0 Multiplicity = 1
 C                     0.        0.        0. 
 O                     0.        0.        1.41352 
 H                     0.92749   0.        1.70592 
 H                     0.51803  -0.89725  -0.34815 
 H                     0.51786   0.89695  -0.34677 
 C                    -1.42147   0.       -0.52884 
 O                    -2.38889  -0.0311    0.23329 
 C                    -1.59838   0.00492  -2.04619 
 C                    -0.29803   0.04539  -2.86317 
 C                    -0.4755    0.02154  -4.39287 
 C                     0.86828   0.04202  -5.12195 
 H                     1.4567   -0.85196  -4.89019 
 H                     1.45026   0.93508  -4.87855 
 O                     0.62907   0.0516   -6.5257 
 H                     1.49772   0.05882  -6.96259 
 H                    -2.23088   0.86564  -2.28847 
 O                    -2.32272  -1.16099  -2.41868 
 H                    -3.17739  -0.87514  -2.78481 
 H                     0.31509   0.92124  -2.6144 
 O                     0.44258  -1.09678  -2.44321 
 H                     1.27832  -0.78635  -2.05615 
 H                    -1.05584   0.88784  -4.72949 
 O                    -1.01692  -1.23465  -4.80051 
 H                    -1.82339  -1.05983  -5.31495 
 

 GradGradGradGradGradGradGradGradGradGradGradGradGradGradGradGradGradGrad
 Berny optimization.
 Initialization pass.
                           ----------------------------
                           !    Initial Parameters    !
                           ! (Angstroms and Degrees)  !
 --------------------------                            --------------------------
 ! Name  Definition              Value          Derivative Info.                !
 --------------------------------------------------------------------------------
 ! R1    R(1,2)                  1.4135         estimate D2E/DX2                !
 ! R2    R(1,4)                  1.093          estimate D2E/DX2                !
 ! R3    R(1,5)                  1.0922         estimate D2E/DX2                !
 ! R4    R(1,6)                  1.5167         estimate D2E/DX2                !
 ! R5    R(2,3)                  0.9725         estimate D2E/DX2                !
 ! R6    R(6,7)                  1.232          estimate D2E/DX2                !
 ! R7    R(6,8)                  1.5276         estimate D2E/DX2                !
 ! R8    R(8,9)                  1.5362         estimate D2E/DX2                !
 ! R9    R(8,16)                 1.0953         estimate D2E/DX2                !
 ! R10   R(8,17)                 1.4222         estimate D2E/DX2                !
 ! R11   R(9,10)                 1.5401         estimate D2E/DX2                !
 ! R12   R(9,19)                 1.0977         estimate D2E/DX2                !
 ! R13   R(9,20)                 1.4246         estimate D2E/DX2                !
 ! R14   R(10,11)                1.529          estimate D2E/DX2                !
 ! R15   R(10,22)                1.0957         estimate D2E/DX2                !
 ! R16   R(10,23)                1.4273         estimate D2E/DX2                !
 ! R17   R(11,12)                1.0951         estimate D2E/DX2                !
 ! R18   R(11,13)                1.0934         estimate D2E/DX2                !
 ! R19   R(11,14)                1.424          estimate D2E/DX2                !
 ! R20   R(14,15)                0.9724         estimate D2E/DX2                !
 ! R21   R(17,18)                0.9727         estimate D2E/DX2                !
 ! R22   R(20,21)                0.9719         estimate D2E/DX2                !
 ! R23   R(23,24)                0.9724         estimate D2E/DX2                !
 ! A1    A(2,1,4)              108.574          estimate D2E/DX2                !
 ! A2    A(2,1,5)              108.511          estimate D2E/DX2                !
 ! A3    A(2,1,6)              110.407          estimate D2E/DX2                !
 ! A4    A(4,1,5)              110.3838         estimate D2E/DX2                !
 ! A5    A(4,1,6)              109.4597         estimate D2E/DX2                !
 ! A6    A(5,1,6)              109.4917         estimate D2E/DX2                !
 ! A7    A(1,2,3)              107.498          estimate D2E/DX2                !
 ! A8    A(1,6,7)              121.351          estimate D2E/DX2                !
 ! A9    A(1,6,8)              117.057          estimate D2E/DX2                !
 ! A10   A(7,6,8)              121.5748         estimate D2E/DX2                !
 ! A11   A(6,8,9)              115.486          estimate D2E/DX2                !
 ! A12   A(6,8,16)             106.8055         estimate D2E/DX2                !
 ! A13   A(6,8,17)             108.4505         estimate D2E/DX2                !
 ! A14   A(9,8,16)             110.516          estimate D2E/DX2                !
 ! A15   A(9,8,17)             108.265          estimate D2E/DX2                !
 ! A16   A(16,8,17)            106.9882         estimate D2E/DX2                !
 ! A17   A(8,9,10)             115.484          estimate D2E/DX2                !
 ! A18   A(8,9,19)             111.9187         estimate D2E/DX2                !
 ! A19   A(8,9,20)             105.1981         estimate D2E/DX2                !
 ! A20   A(10,9,19)            107.567          estimate D2E/DX2                !
 ! A21   A(10,9,20)            109.894          estimate D2E/DX2                !
 ! A22   A(19,9,20)            106.4113         estimate D2E/DX2                !
 ! A23   A(9,10,11)            111.847          estimate D2E/DX2                !
 ! A24   A(9,10,22)            110.727          estimate D2E/DX2                !
 ! A25   A(9,10,23)            109.938          estimate D2E/DX2                !
 ! A26   A(11,10,22)           107.9636         estimate D2E/DX2                !
 ! A27   A(11,10,23)           102.0626         estimate D2E/DX2                !
 ! A28   A(22,10,23)           114.0276         estimate D2E/DX2                !
 ! A29   A(10,11,12)           111.125          estimate D2E/DX2                !
 ! A30   A(10,11,13)           111.8759         estimate D2E/DX2                !
 ! A31   A(10,11,14)           108.815          estimate D2E/DX2                !
 ! A32   A(12,11,13)           109.4922         estimate D2E/DX2                !
 ! A33   A(12,11,14)           107.7211         estimate D2E/DX2                !
 ! A34   A(13,11,14)           107.6593         estimate D2E/DX2                !
 ! A35   A(11,14,15)           107.0319         estimate D2E/DX2                !
 ! A36   A(8,17,18)            107.768          estimate D2E/DX2                !
 ! A37   A(9,20,21)            107.96           estimate D2E/DX2                !
 ! A38   A(10,23,24)           107.906          estimate D2E/DX2                !
 ! D1    D(4,1,2,3)             60.0            estimate D2E/DX2                !
 ! D2    D(5,1,2,3)            -60.0            estimate D2E/DX2                !
 ! D3    D(6,1,2,3)            180.0            estimate D2E/DX2                !
 ! D4    D(2,1,6,7)             -1.694          estimate D2E/DX2                !
 ! D5    D(2,1,6,8)            179.793          estimate D2E/DX2                !
 ! D6    D(4,1,6,7)            117.7715         estimate D2E/DX2                !
 ! D7    D(4,1,6,8)            -60.7415         estimate D2E/DX2                !
 ! D8    D(5,1,6,7)           -121.102          estimate D2E/DX2                !
 ! D9    D(5,1,6,8)             60.385          estimate D2E/DX2                !
 ! D10   D(1,6,8,9)             -1.4906         estimate D2E/DX2                !
 ! D11   D(1,6,8,16)          -124.8258         estimate D2E/DX2                !
 ! D12   D(1,6,8,17)           120.1809         estimate D2E/DX2                !
 ! D13   D(7,6,8,9)            180.0            estimate D2E/DX2                !
 ! D14   D(7,6,8,16)            56.6647         estimate D2E/DX2                !
 ! D15   D(7,6,8,17)           -58.3286         estimate D2E/DX2                !
 ! D16   D(6,8,9,10)           178.812          estimate D2E/DX2                !
 ! D17   D(6,8,9,19)           -57.6707         estimate D2E/DX2                !
 ! D18   D(6,8,9,20)            57.4731         estimate D2E/DX2                !
 ! D19   D(16,8,9,10)          -59.8319         estimate D2E/DX2                !
 ! D20   D(16,8,9,19)           63.6854         estimate D2E/DX2                !
 ! D21   D(16,8,9,20)          178.8291         estimate D2E/DX2                !
 ! D22   D(17,8,9,10)           57.041          estimate D2E/DX2                !
 ! D23   D(17,8,9,19)         -179.4417         estimate D2E/DX2                !
 ! D24   D(17,8,9,20)          -64.298          estimate D2E/DX2                !
 ! D25   D(6,8,17,18)          114.8739         estimate D2E/DX2                !
 ! D26   D(9,8,17,18)         -119.126          estimate D2E/DX2                !
 ! D27   D(16,8,17,18)          -0.0001         estimate D2E/DX2                !
 ! D28   D(8,9,10,11)         -179.087          estimate D2E/DX2                !
 ! D29   D(8,9,10,22)           60.4499         estimate D2E/DX2                !
 ! D30   D(8,9,10,23)          -66.447          estimate D2E/DX2                !
 ! D31   D(19,9,10,11)          55.1349         estimate D2E/DX2                !
 ! D32   D(19,9,10,22)         -65.3281         estimate D2E/DX2                !
 ! D33   D(19,9,10,23)         167.775          estimate D2E/DX2                !
 ! D34   D(20,9,10,11)         -60.315          estimate D2E/DX2                !
 ! D35   D(20,9,10,22)         179.2219         estimate D2E/DX2                !
 ! D36   D(20,9,10,23)          52.325          estimate D2E/DX2                !
 ! D37   D(8,9,20,21)         -118.8985         estimate D2E/DX2                !
 ! D38   D(10,9,20,21)         116.1799         estimate D2E/DX2                !
 ! D39   D(19,9,20,21)           0.0            estimate D2E/DX2                !
 ! D40   D(9,10,11,12)          62.961          estimate D2E/DX2                !
 ! D41   D(9,10,11,13)         -59.764          estimate D2E/DX2                !
 ! D42   D(9,10,11,14)        -178.59           estimate D2E/DX2                !
 ! D43   D(22,10,11,12)       -174.9777         estimate D2E/DX2                !
 ! D44   D(22,10,11,13)         62.2974         estimate D2E/DX2                !
 ! D45   D(22,10,11,14)        -56.5287         estimate D2E/DX2                !
 ! D46   D(23,10,11,12)        -54.514          estimate D2E/DX2                !
 ! D47   D(23,10,11,13)       -177.2389         estimate D2E/DX2                !
 ! D48   D(23,10,11,14)         63.935          estimate D2E/DX2                !
 ! D49   D(9,10,23,24)         125.0235         estimate D2E/DX2                !
 ! D50   D(11,10,23,24)       -116.1399         estimate D2E/DX2                !
 ! D51   D(22,10,23,24)          0.0            estimate D2E/DX2                !
 ! D52   D(10,11,14,15)       -179.647          estimate D2E/DX2                !
 ! D53   D(12,11,14,15)        -59.077          estimate D2E/DX2                !
 ! D54   D(13,11,14,15)         58.9155         estimate D2E/DX2                !
 --------------------------------------------------------------------------------
 Trust Radius=3.00D-01 FncErr=1.00D-07 GrdErr=1.00D-06
 Number of steps in this run=    125 maximum allowed number of steps=    144.
 GradGradGradGradGradGradGradGradGradGradGradGradGradGradGradGradGradGrad

                          Input orientation:                          
 ---------------------------------------------------------------------
 Center     Atomic      Atomic             Coordinates (Angstroms)
 Number     Number       Type             X           Y           Z
 ---------------------------------------------------------------------
      1          6           0        0.000000    0.000000    0.000000
      2          8           0        0.000000    0.000000    1.413516
      3          1           0        0.927487    0.000000    1.705916
      4          1           0        0.518025   -0.897246   -0.348146
      5          1           0        0.517855    0.896952   -0.346765
      6          6           0       -1.421472    0.000000   -0.528838
      7          8           0       -2.388894   -0.031101    0.233292
      8          6           0       -1.598381    0.004915   -2.046186
      9          6           0       -0.298033    0.045392   -2.863171
     10          6           0       -0.475503    0.021535   -4.392866
     11          6           0        0.868280    0.042020   -5.121945
     12          1           0        1.456696   -0.851959   -4.890189
     13          1           0        1.450260    0.935079   -4.878545
     14          8           0        0.629072    0.051603   -6.525700
     15          1           0        1.497715    0.058819   -6.962591
     16          1           0       -2.230879    0.865635   -2.288466
     17          8           0       -2.322721   -1.160985   -2.418677
     18          1           0       -3.177394   -0.875136   -2.784805
     19          1           0        0.315092    0.921242   -2.614396
     20          8           0        0.442584   -1.096782   -2.443213
     21          1           0        1.278324   -0.786348   -2.056148
     22          1           0       -1.055845    0.887837   -4.729486
     23          8           0       -1.016917   -1.234648   -4.800512
     24          1           0       -1.823387   -1.059831   -5.314954
 ---------------------------------------------------------------------
                    Distance matrix (angstroms):
                    1          2          3          4          5
     1  C    0.000000
     2  O    1.413516   0.000000
     3  H    1.941747   0.972486   0.000000
     4  H    1.092980   2.043735   2.278570   0.000000
     5  H    1.092219   2.042373   2.277240   1.794199   0.000000
     6  C    1.516658   2.406932   3.242180   2.144609   2.144449
     7  O    2.400460   2.664716   3.628770   3.088439   3.105952
     8  C    2.596483   3.811087   4.523086   2.859442   2.856959
     9  C    2.878998   4.287299   4.730805   2.807110   2.779051
    10  C    4.418579   5.825859   6.258114   4.265093   4.257235
    11  C    5.195190   6.593021   6.828247   4.877915   4.863749
    12  H    5.173176   6.525680   6.671919   4.638244   4.958106
    13  H    5.174730   6.524390   6.671041   4.975037   4.626863
    14  O    6.556154   7.964267   8.237185   6.250985   6.237485
    15  H    7.122098   8.509158   8.687441   6.754608   6.740308
    16  H    3.311076   4.408040   5.165238   3.798561   3.365520
    17  O    3.548650   4.629106   5.378104   3.525123   4.073917
    18  H    4.314723   5.337377   6.146746   4.426502   4.768564
    19  H    2.789809   4.143917   4.459687   2.912725   2.276808
    20  O    2.714425   4.034002   4.318950   2.105899   2.894086
    21  H    2.545624   3.780347   3.859346   1.872865   2.516705
    22  H    4.926571   6.295994   6.792368   4.985953   4.656700
    23  O    5.059979   6.416589   6.902077   4.721594   5.170600
    24  H    5.718104   7.051262   7.614668   5.493435   5.830379
                    6          7          8          9         10
     6  C    0.000000
     7  O    1.231956   0.000000
     8  C    1.527634   2.412929   0.000000
     9  C    2.591001   3.737062   1.536232   0.000000
    10  C    3.978195   5.006513   2.601545   1.540140   0.000000
    11  C    5.132384   6.268420   3.942853   2.542117   1.528963
    12  H    5.294437   6.458516   4.260995   2.827210   2.178007
    13  H    5.295391   6.465561   4.263997   2.812437   2.186095
    14  O    6.337961   7.402630   5.002976   3.778053   2.402076
    15  H    7.065288   8.178909   5.810314   4.475504   3.240134
    16  H    2.121498   2.681113   1.095259   2.176919   2.867464
    17  O    2.394082   2.883393   1.422231   2.398392   2.950930
    18  H    2.989734   3.231569   1.952775   3.023943   3.269571
    19  H    2.865989   4.040770   2.196337   1.097691   2.144171
    20  O    2.888333   4.039384   2.353063   1.424584   2.427893
    21  H    3.199987   4.388670   2.983560   1.956522   3.031309
    22  H    4.308988   5.220214   2.876455   2.183375   1.095714
    23  O    4.464887   5.354440   3.075862   2.430758   1.427340
    24  H    4.918504   5.671077   3.445164   3.091838   1.958670
                   11         12         13         14         15
    11  C    0.000000
    12  H    1.095054   0.000000
    13  H    1.093389   1.787088   0.000000
    14  O    1.424023   2.043595   2.041568   0.000000
    15  H    1.945366   2.264078   2.261268   0.972351   0.000000
    16  H    4.279221   4.828799   4.501568   5.176497   6.033308
    17  O    4.351708   4.526352   4.967879   5.201066   6.060595
    18  H    4.761394   5.089987   5.392199   5.416856   6.338991
    19  H    2.714194   3.102698   2.532818   4.019099   4.587937
    20  O    2.941716   2.660085   3.327869   4.245028   4.782624
    21  H    3.202099   2.840407   3.310407   4.593537   4.983535
    22  H    2.138150   3.060323   2.510978   2.600888   3.492091
    23  O    2.299384   2.504647   3.286452   2.709243   3.559637
    24  H    2.914858   3.313998   3.858352   2.952244   3.872442
                   16         17         18         19         20
    16  H    0.000000
    17  O    2.032874   0.000000
    18  H    2.042676   0.972741   0.000000
    19  H    2.567351   3.366308   3.931090   0.000000
    20  O    3.320005   2.766159   3.642808   2.029280   0.000000
    21  H    3.885553   3.638586   4.515778   2.038460   0.971931
    22  H    2.709202   3.338036   3.375030   2.520752   3.378024
    23  O    3.492172   2.717294   2.976573   3.346821   2.775970
    24  H    3.610138   2.940746   2.875604   3.973758   3.658263
                   21         22         23         24
    21  H    0.000000
    22  H    3.924026   0.000000
    23  O    3.605640   2.124030   0.000000
    24  H    4.507241   2.173776   0.972422   0.000000
 Stoichiometry    C6H12O6
 Framework group  C1[X(C6H12O6)]
 Deg. of freedom    66
 Full point group                 C1      NOp   1
 Largest Abelian subgroup         C1      NOp   1
 Largest concise Abelian subgroup C1      NOp   1
                         Standard orientation:                         
 ---------------------------------------------------------------------
 Center     Atomic      Atomic             Coordinates (Angstroms)
 Number     Number       Type             X           Y           Z
 ---------------------------------------------------------------------
      1          6           0        2.370097   -1.059650   -0.005513
      2          8           0        3.757768   -1.312849    0.085520
      3          1           0        3.870245   -2.259266    0.278842
      4          1           0        1.905347   -1.320041    0.948851
      5          1           0        1.957654   -1.673248   -0.809460
      6          6           0        2.118485    0.405291   -0.306995
      7          8           0        3.047890    1.207429   -0.409436
      8          6           0        0.662319    0.846651   -0.442814
      9          6           0       -0.383338   -0.268427   -0.290461
     10          6           0       -1.852336    0.181349   -0.398983
     11          6           0       -2.820437   -0.987410   -0.213205
     12          1           0       -2.729044   -1.420172    0.788547
     13          1           0       -2.665686   -1.767769   -0.963265
     14          8           0       -4.153229   -0.507263   -0.358003
     15          1           0       -4.745427   -1.267743   -0.229792
     16          1           0        0.567948    1.330337   -1.420942
     17          8           0        0.399889    1.841059    0.539542
     18          1           0        0.209439    2.674236    0.075031
     19          1           0       -0.229661   -1.076384   -1.017450
     20          8           0       -0.142876   -0.832766    0.995284
     21          1           0        0.088615   -1.768799    0.873206
     22          1           0       -2.048981    0.630560   -1.378845
     23          8           0       -2.186271    1.023494    0.704003
     24          1           0       -2.534548    1.858625    0.347823
 ---------------------------------------------------------------------
 Rotational constants (GHZ):      1.9672519      0.4533163      0.3969560
 Standard basis: 6-311G(d,p) (5D, 7F)
 There are   288 symmetry adapted basis functions of A   symmetry.
 Integral buffers will be    131072 words long.
 Raffenetti 2 integral format.
 Two-electron integral symmetry is turned on.
   288 basis functions,   480 primitive gaussians,   300 cartesian basis functions
    48 alpha electrons       48 beta electrons
       nuclear repulsion energy       787.3195919569 Hartrees.
 NAtoms=   24 NActive=   24 NUniq=   24 SFac= 1.00D+00 NAtFMM=   50 NAOKFM=F Big=F
 One-electron integrals computed using PRISM.
 NBasis=   288 RedAO= T  NBF=   288
 NBsUse=   288 1.00D-06 NBFU=   288
 Harris functional with IExCor=  402 diagonalized for initial guess.
 ExpMin= 1.03D-01 ExpMax= 8.59D+03 ExpMxC= 1.30D+03 IAcc=1 IRadAn=         1 AccDes= 0.00D+00
 HarFok:  IExCor=  402 AccDes= 0.00D+00 IRadAn=         1 IDoV= 1
 ScaDFX=  1.000000  1.000000  1.000000  1.000000
 FoFCou: FMM=F IPFlag=           0 FMFlag=      100000 FMFlg1=           0
         NFxFlg=           0 DoJE=T BraDBF=F KetDBF=T FulRan=T
         Omega=  0.000000  0.000000  1.000000  0.000000  0.000000 ICntrl=     500 IOpCl=  0
         NMat0=    1 NMatS0=    1 NMatT0=    0 NMatD0=    1 NMtDS0=    0 NMtDT0=    0
         I1Cent=           4 NGrid=           0.
 Petite list used in FoFCou.
 Initial guess orbital symmetries:
       Occupied  (A) (A) (A) (A) (A) (A) (A) (A) (A) (A) (A) (A)
                 (A) (A) (A) (A) (A) (A) (A) (A) (A) (A) (A) (A)
                 (A) (A) (A) (A) (A) (A) (A) (A) (A) (A) (A) (A)
                 (A) (A) (A) (A) (A) (A) (A) (A) (A) (A) (A) (A)
       Virtual   (A) (A) (A) (A) (A) (A) (A) (A) (A) (A) (A) (A)
                 (A) (A) (A) (A) (A) (A) (A) (A) (A) (A) (A) (A)
                 (A) (A) (A) (A) (A) (A) (A) (A) (A) (A) (A) (A)
                 (A) (A) (A) (A) (A) (A) (A) (A) (A) (A) (A) (A)
                 (A) (A) (A) (A) (A) (A) (A) (A) (A) (A) (A) (A)
                 (A) (A) (A) (A) (A) (A) (A) (A) (A) (A) (A) (A)
                 (A) (A) (A) (A) (A) (A) (A) (A) (A) (A) (A) (A)
                 (A) (A) (A) (A) (A) (A) (A) (A) (A) (A) (A) (A)
                 (A) (A) (A) (A) (A) (A) (A) (A) (A) (A) (A) (A)
                 (A) (A) (A) (A) (A) (A) (A) (A) (A) (A) (A) (A)
                 (A) (A) (A) (A) (A) (A) (A) (A) (A) (A) (A) (A)
                 (A) (A) (A) (A) (A) (A) (A) (A) (A) (A) (A) (A)
                 (A) (A) (A) (A) (A) (A) (A) (A) (A) (A) (A) (A)
                 (A) (A) (A) (A) (A) (A) (A) (A) (A) (A) (A) (A)
                 (A) (A) (A) (A) (A) (A) (A) (A) (A) (A) (A) (A)
                 (A) (A) (A) (A) (A) (A) (A) (A) (A) (A) (A) (A)
                 (A) (A) (A) (A) (A) (A) (A) (A) (A) (A) (A) (A)
                 (A) (A) (A) (A) (A) (A) (A) (A) (A) (A) (A) (A)
                 (A) (A) (A) (A) (A) (A) (A) (A) (A) (A) (A) (A)
                 (A) (A) (A) (A) (A) (A) (A) (A) (A) (A) (A) (A)
 The electronic state of the initial guess is 1-A.
 Requested convergence on RMS density matrix=1.00D-08 within 128 cycles.
 Requested convergence on MAX density matrix=1.00D-06.
 Requested convergence on             energy=1.00D-06.
 No special actions if energy rises.
 Keep R1 ints in memory in canonical form, NReq=1033417440.
 Integral accuracy reduced to 1.0D-05 until final iterations.
 Initial convergence to 1.0D-05 achieved.  Increase integral accuracy.
 SCF Done:  E(RB3LYP) =  -687.305229502     A.U. after   14 cycles
             Convg  =    0.6491D-08             -V/T =  2.0030

 **********************************************************************

            Population analysis using the SCF density.

 **********************************************************************

 Orbital symmetries:
       Occupied  (A) (A) (A) (A) (A) (A) (A) (A) (A) (A) (A) (A)
                 (A) (A) (A) (A) (A) (A) (A) (A) (A) (A) (A) (A)
                 (A) (A) (A) (A) (A) (A) (A) (A) (A) (A) (A) (A)
                 (A) (A) (A) (A) (A) (A) (A) (A) (A) (A) (A) (A)
       Virtual   (A) (A) (A) (A) (A) (A) (A) (A) (A) (A) (A) (A)
                 (A) (A) (A) (A) (A) (A) (A) (A) (A) (A) (A) (A)
                 (A) (A) (A) (A) (A) (A) (A) (A) (A) (A) (A) (A)
                 (A) (A) (A) (A) (A) (A) (A) (A) (A) (A) (A) (A)
                 (A) (A) (A) (A) (A) (A) (A) (A) (A) (A) (A) (A)
                 (A) (A) (A) (A) (A) (A) (A) (A) (A) (A) (A) (A)
                 (A) (A) (A) (A) (A) (A) (A) (A) (A) (A) (A) (A)
                 (A) (A) (A) (A) (A) (A) (A) (A) (A) (A) (A) (A)
                 (A) (A) (A) (A) (A) (A) (A) (A) (A) (A) (A) (A)
                 (A) (A) (A) (A) (A) (A) (A) (A) (A) (A) (A) (A)
                 (A) (A) (A) (A) (A) (A) (A) (A) (A) (A) (A) (A)
                 (A) (A) (A) (A) (A) (A) (A) (A) (A) (A) (A) (A)
                 (A) (A) (A) (A) (A) (A) (A) (A) (A) (A) (A) (A)
                 (A) (A) (A) (A) (A) (A) (A) (A) (A) (A) (A) (A)
                 (A) (A) (A) (A) (A) (A) (A) (A) (A) (A) (A) (A)
                 (A) (A) (A) (A) (A) (A) (A) (A) (A) (A) (A) (A)
                 (A) (A) (A) (A) (A) (A) (A) (A) (A) (A) (A) (A)
                 (A) (A) (A) (A) (A) (A) (A) (A) (A) (A) (A) (A)
                 (A) (A) (A) (A) (A) (A) (A) (A) (A) (A) (A) (A)
                 (A) (A) (A) (A) (A) (A) (A) (A) (A) (A) (A) (A)
 The electronic state is 1-A.
 Alpha  occ. eigenvalues --  -19.13104 -19.12002 -19.11688 -19.11339 -19.11331
 Alpha  occ. eigenvalues --  -19.10984 -10.26414 -10.24307 -10.24059 -10.23477
 Alpha  occ. eigenvalues --  -10.23008 -10.21739  -1.05788  -1.04359  -1.02856
 Alpha  occ. eigenvalues --   -1.02637  -1.01423  -1.00671  -0.79074  -0.75755
 Alpha  occ. eigenvalues --   -0.71321  -0.65507  -0.59449  -0.57226  -0.54753
 Alpha  occ. eigenvalues --   -0.53232  -0.53056  -0.52004  -0.49671  -0.48570
 Alpha  occ. eigenvalues --   -0.47648  -0.45154  -0.43739  -0.43261  -0.41996
 Alpha  occ. eigenvalues --   -0.40871  -0.37086  -0.36547  -0.35462  -0.34895
 Alpha  occ. eigenvalues --   -0.33949  -0.33574  -0.30842  -0.29906  -0.27812
 Alpha  occ. eigenvalues --   -0.27532  -0.26430  -0.24218
 Alpha virt. eigenvalues --   -0.03976  -0.00135   0.02274   0.03189   0.03508
 Alpha virt. eigenvalues --    0.05417   0.06474   0.07706   0.08669   0.11103
 Alpha virt. eigenvalues --    0.12362   0.12974   0.14171   0.15957   0.16327
 Alpha virt. eigenvalues --    0.17574   0.17926   0.21108   0.22474   0.23971
 Alpha virt. eigenvalues --    0.26116   0.28014   0.29811   0.32977   0.35607
 Alpha virt. eigenvalues --    0.36628   0.37915   0.39029   0.39430   0.39857
 Alpha virt. eigenvalues --    0.40837   0.41916   0.44742   0.45889   0.46635
 Alpha virt. eigenvalues --    0.47321   0.48025   0.48700   0.49864   0.51384
 Alpha virt. eigenvalues --    0.51805   0.53904   0.54216   0.56852   0.57585
 Alpha virt. eigenvalues --    0.58344   0.59220   0.60527   0.61618   0.61926
 Alpha virt. eigenvalues --    0.63411   0.64767   0.67635   0.67801   0.69060
 Alpha virt. eigenvalues --    0.73885   0.77283   0.78414   0.79779   0.81438
 Alpha virt. eigenvalues --    0.82033   0.84245   0.84741   0.85180   0.86416
 Alpha virt. eigenvalues --    0.87192   0.88277   0.89526   0.93092   0.93610
 Alpha virt. eigenvalues --    0.95533   0.97837   1.00656   1.05677   1.06359
 Alpha virt. eigenvalues --    1.07114   1.08593   1.10385   1.14494   1.18399
 Alpha virt. eigenvalues --    1.19643   1.24252   1.25311   1.29690   1.30645
 Alpha virt. eigenvalues --    1.33167   1.35865   1.37416   1.37744   1.38231
 Alpha virt. eigenvalues --    1.40686   1.41444   1.42969   1.44385   1.45017
 Alpha virt. eigenvalues --    1.47075   1.47264   1.48510   1.50823   1.52329
 Alpha virt. eigenvalues --    1.53136   1.54166   1.55766   1.56900   1.57362
 Alpha virt. eigenvalues --    1.60139   1.61016   1.62150   1.62759   1.63977
 Alpha virt. eigenvalues --    1.64466   1.66887   1.67210   1.68647   1.71769
 Alpha virt. eigenvalues --    1.74303   1.76641   1.78615   1.83143   1.86335
 Alpha virt. eigenvalues --    1.86764   1.89090   1.91858   1.92992   1.94127
 Alpha virt. eigenvalues --    1.94933   1.96047   1.98062   1.99558   2.01136
 Alpha virt. eigenvalues --    2.03840   2.05287   2.05902   2.08127   2.10927
 Alpha virt. eigenvalues --    2.13323   2.13805   2.16819   2.20346   2.22145
 Alpha virt. eigenvalues --    2.26414   2.27449   2.34298   2.36032   2.39680
 Alpha virt. eigenvalues --    2.41532   2.42335   2.42624   2.45657   2.49836
 Alpha virt. eigenvalues --    2.51384   2.52233   2.53613   2.55338   2.59102
 Alpha virt. eigenvalues --    2.60820   2.65710   2.69668   2.70651   2.75344
 Alpha virt. eigenvalues --    2.81816   2.82923   2.84537   2.86159   2.86965
 Alpha virt. eigenvalues --    2.90684   2.91215   2.92998   2.93826   2.98374
 Alpha virt. eigenvalues --    3.01654   3.03875   3.07774   3.09038   3.10488
 Alpha virt. eigenvalues --    3.11932   3.13843   3.15053   3.16771   3.17275
 Alpha virt. eigenvalues --    3.18815   3.21220   3.22836   3.24901   3.26331
 Alpha virt. eigenvalues --    3.28123   3.29811   3.31499   3.32715   3.33542
 Alpha virt. eigenvalues --    3.42536   3.48893   3.58386   3.70979   3.77994
 Alpha virt. eigenvalues --    3.78713   3.79611   3.81517   3.82113   3.84970
 Alpha virt. eigenvalues --    3.87994   3.89220   3.91602   3.92598   3.93391
 Alpha virt. eigenvalues --    4.02201   4.04377   4.09141   4.20281   4.35004
 Alpha virt. eigenvalues --    4.83348   4.85566   4.89651   4.93340   5.00975
 Alpha virt. eigenvalues --    5.02922   5.08949   5.25617   5.25772   5.27381
 Alpha virt. eigenvalues --    5.28541   5.32769   5.56163   5.60491   5.61462
 Alpha virt. eigenvalues --    5.62571   5.65652   5.66645  23.68489  23.75690
 Alpha virt. eigenvalues --   23.77852  23.79113  23.80010  23.82675  49.86942
 Alpha virt. eigenvalues --   49.88528  49.90081  49.91318  49.93874  49.96525
          Condensed to atoms (all electrons):
              1          2          3          4          5          6
     1  C    5.064318   0.256674  -0.034350   0.395619   0.369960   0.189178
     2  O    0.256674   7.913153   0.302838  -0.022950  -0.030976  -0.038256
     3  H   -0.034350   0.302838   0.499657  -0.003918  -0.006909   0.010432
     4  H    0.395619  -0.022950  -0.003918   0.547815  -0.030098  -0.050212
     5  H    0.369960  -0.030976  -0.006909  -0.030098   0.622507  -0.038263
     6  C    0.189178  -0.038256   0.010432  -0.050212  -0.038263   4.990815
     7  O   -0.090705   0.004161  -0.000069   0.000601   0.001917   0.651062
     8  C   -0.121023   0.002291  -0.000623   0.013338   0.005833   0.199241
     9  C    0.003959  -0.000083   0.000036  -0.017912   0.001391  -0.057922
    10  C    0.000218   0.000000  -0.000004   0.001241   0.000918   0.002044
    11  C   -0.000051   0.000000   0.000000  -0.000226  -0.000058  -0.000056
    12  H   -0.000028   0.000000   0.000000  -0.000113   0.000014   0.000028
    13  H    0.000032   0.000000   0.000000   0.000015  -0.000089   0.000034
    14  O    0.000000   0.000000   0.000000   0.000000   0.000000   0.000000
    15  H    0.000000   0.000000   0.000000   0.000000   0.000000   0.000000
    16  H    0.012197  -0.000078   0.000042   0.001072  -0.002080  -0.027621
    17  O    0.003624  -0.000009   0.000010   0.000696   0.000031  -0.052026
    18  H   -0.000242   0.000002  -0.000001  -0.000176   0.000000  -0.000564
    19  H   -0.006660  -0.000242  -0.000045   0.002292   0.005605   0.003562
    20  O   -0.010880   0.000321  -0.000057   0.028692  -0.002103  -0.003992
    21  H    0.007804  -0.000715  -0.000139  -0.005203  -0.000799  -0.001895
    22  H   -0.000087   0.000000   0.000000  -0.000064   0.000026   0.000145
    23  O   -0.000039   0.000000   0.000000  -0.000031  -0.000011   0.000014
    24  H   -0.000008   0.000000   0.000000   0.000014   0.000004   0.000225
              7          8          9         10         11         12
     1  C   -0.090705  -0.121023   0.003959   0.000218  -0.000051  -0.000028
     2  O    0.004161   0.002291  -0.000083   0.000000   0.000000   0.000000
     3  H   -0.000069  -0.000623   0.000036  -0.000004   0.000000   0.000000
     4  H    0.000601   0.013338  -0.017912   0.001241  -0.000226  -0.000113
     5  H    0.001917   0.005833   0.001391   0.000918  -0.000058   0.000014
     6  C    0.651062   0.199241  -0.057922   0.002044  -0.000056   0.000028
     7  O    7.779362  -0.071672   0.004728  -0.000122   0.000001   0.000000
     8  C   -0.071672   5.277553   0.178283  -0.022273   0.004932  -0.000200
     9  C    0.004728   0.178283   5.488870   0.125790  -0.073368  -0.007804
    10  C   -0.000122  -0.022273   0.125790   5.208327   0.303384  -0.034969
    11  C    0.000001   0.004932  -0.073368   0.303384   4.832677   0.387882
    12  H    0.000000  -0.000200  -0.007804  -0.034969   0.387882   0.596365
    13  H    0.000000  -0.000318   0.013373  -0.053690   0.371090  -0.045378
    14  O    0.000000  -0.000051   0.003126  -0.048777   0.276845  -0.034611
    15  H    0.000000   0.000019  -0.000680   0.009831  -0.034479  -0.005140
    16  H    0.002609   0.367799  -0.037557  -0.007640  -0.000377  -0.000037
    17  O    0.000515   0.279106  -0.094080   0.006320  -0.000122  -0.000014
    18  H    0.001923  -0.022206   0.006586   0.002778   0.000424  -0.000003
    19  H    0.000029  -0.049606   0.386417  -0.030881  -0.004118   0.000274
    20  O   -0.000048  -0.061901   0.198683  -0.055687   0.001288   0.014169
    21  H    0.000075   0.015212  -0.023431  -0.001608   0.002617   0.001588
    22  H   -0.000007  -0.006841  -0.038024   0.362906  -0.035189   0.013024
    23  O    0.000000  -0.004401  -0.069533   0.263785  -0.072084   0.002685
    24  H   -0.000004   0.001948   0.005801  -0.026911   0.002950  -0.001386
             13         14         15         16         17         18
     1  C    0.000032   0.000000   0.000000   0.012197   0.003624  -0.000242
     2  O    0.000000   0.000000   0.000000  -0.000078  -0.000009   0.000002
     3  H    0.000000   0.000000   0.000000   0.000042   0.000010  -0.000001
     4  H    0.000015   0.000000   0.000000   0.001072   0.000696  -0.000176
     5  H   -0.000089   0.000000   0.000000  -0.002080   0.000031   0.000000
     6  C    0.000034   0.000000   0.000000  -0.027621  -0.052026  -0.000564
     7  O    0.000000   0.000000   0.000000   0.002609   0.000515   0.001923
     8  C   -0.000318  -0.000051   0.000019   0.367799   0.279106  -0.022206
     9  C    0.013373   0.003126  -0.000680  -0.037557  -0.094080   0.006586
    10  C   -0.053690  -0.048777   0.009831  -0.007640   0.006320   0.002778
    11  C    0.371090   0.276845  -0.034479  -0.000377  -0.000122   0.000424
    12  H   -0.045378  -0.034611  -0.005140  -0.000037  -0.000014  -0.000003
    13  H    0.686331  -0.038850  -0.007000  -0.000011   0.000018  -0.000034
    14  O   -0.038850   7.930726   0.308650  -0.000007   0.000000  -0.000003
    15  H   -0.007000   0.308650   0.492083   0.000000  -0.000001   0.000001
    16  H   -0.000011  -0.000007   0.000000   0.604536  -0.022871  -0.021392
    17  O    0.000018   0.000000  -0.000001  -0.022871   7.921149   0.306237
    18  H   -0.000034  -0.000003   0.000001  -0.021392   0.306237   0.482634
    19  H    0.005845  -0.000310  -0.000059   0.001482   0.004149  -0.000533
    20  O   -0.000572   0.000026   0.000022   0.004858   0.002980  -0.000449
    21  H   -0.000748  -0.000030   0.000001  -0.001298  -0.000661   0.000092
    22  H   -0.007286   0.007456  -0.000531   0.001572   0.000017  -0.000311
    23  O    0.007341   0.002201  -0.000025  -0.000141  -0.002619   0.006029
    24  H   -0.000239   0.003358   0.000003  -0.000108   0.006107   0.000398
             19         20         21         22         23         24
     1  C   -0.006660  -0.010880   0.007804  -0.000087  -0.000039  -0.000008
     2  O   -0.000242   0.000321  -0.000715   0.000000   0.000000   0.000000
     3  H   -0.000045  -0.000057  -0.000139   0.000000   0.000000   0.000000
     4  H    0.002292   0.028692  -0.005203  -0.000064  -0.000031   0.000014
     5  H    0.005605  -0.002103  -0.000799   0.000026  -0.000011   0.000004
     6  C    0.003562  -0.003992  -0.001895   0.000145   0.000014   0.000225
     7  O    0.000029  -0.000048   0.000075  -0.000007   0.000000  -0.000004
     8  C   -0.049606  -0.061901   0.015212  -0.006841  -0.004401   0.001948
     9  C    0.386417   0.198683  -0.023431  -0.038024  -0.069533   0.005801
    10  C   -0.030881  -0.055687  -0.001608   0.362906   0.263785  -0.026911
    11  C   -0.004118   0.001288   0.002617  -0.035189  -0.072084   0.002950
    12  H    0.000274   0.014169   0.001588   0.013024   0.002685  -0.001386
    13  H    0.005845  -0.000572  -0.000748  -0.007286   0.007341  -0.000239
    14  O   -0.000310   0.000026  -0.000030   0.007456   0.002201   0.003358
    15  H   -0.000059   0.000022   0.000001  -0.000531  -0.000025   0.000003
    16  H    0.001482   0.004858  -0.001298   0.001572  -0.000141  -0.000108
    17  O    0.004149   0.002980  -0.000661   0.000017  -0.002619   0.006107
    18  H   -0.000533  -0.000449   0.000092  -0.000311   0.006029   0.000398
    19  H    0.622632  -0.031432  -0.025579   0.000156   0.004454  -0.000447
    20  O   -0.031432   7.999409   0.291666   0.003869   0.002358  -0.000361
    21  H   -0.025579   0.291666   0.512424   0.000005  -0.000290  -0.000045
    22  H    0.000156   0.003869   0.000005   0.631581  -0.024735  -0.017143
    23  O    0.004454   0.002358  -0.000290  -0.024735   7.942267   0.304968
    24  H   -0.000447  -0.000361  -0.000045  -0.017143   0.304968   0.487682
 Mulliken atomic charges:
              1
     1  C   -0.039513
     2  O   -0.386130
     3  H    0.233099
     4  H    0.139506
     5  H    0.103179
     6  C    0.224026
     7  O   -0.284357
     8  C    0.015561
     9  C    0.003352
    10  C   -0.004984
    11  C    0.036038
    12  H    0.113653
    13  H    0.070136
    14  O   -0.409751
    15  H    0.237305
    16  H    0.125050
    17  O   -0.358554
    18  H    0.238809
    19  H    0.113013
    20  O   -0.380860
    21  H    0.230958
    22  H    0.109461
    23  O   -0.362193
    24  H    0.233193
 Sum of Mulliken atomic charges =   0.00000
 Mulliken charges with hydrogens summed into heavy atoms:
              1
     1  C    0.203173
     2  O   -0.153031
     6  C    0.224026
     7  O   -0.284357
     8  C    0.140611
     9  C    0.116365
    10  C    0.104478
    11  C    0.219827
    14  O   -0.172446
    17  O   -0.119745
    20  O   -0.149902
    23  O   -0.129000
 Sum of Mulliken charges with hydrogens summed into heavy atoms =   0.00000
 Electronic spatial extent (au):  <R**2>=           2721.1512
 Charge=              0.0000 electrons
 Dipole moment (field-independent basis, Debye):
    X=             -3.2397    Y=             -4.0378    Z=             -2.9951  Tot=              5.9808
 Quadrupole moment (field-independent basis, Debye-Ang):
   XX=            -85.7331   YY=            -53.2984   ZZ=            -73.7585
   XY=             -6.7578   XZ=              3.6104   YZ=             -4.4224
 Traceless Quadrupole moment (field-independent basis, Debye-Ang):
   XX=            -14.8031   YY=             17.6316   ZZ=             -2.8285
   XY=             -6.7578   XZ=              3.6104   YZ=             -4.4224
 Octapole moment (field-independent basis, Debye-Ang**2):
  XXX=            -83.7038  YYY=              1.2517  ZZZ=              1.8918  XYY=             -9.3065
  XXY=            -58.8610  XXZ=             13.4999  XZZ=              5.3729  YZZ=             -1.6744
  YYZ=              2.7154  XYZ=             -1.1081
 Hexadecapole moment (field-independent basis, Debye-Ang**3):
 XXXX=          -2615.9225 YYYY=           -421.9482 ZZZZ=           -191.9789 XXXY=             23.0106
 XXXZ=             14.9781 YYYX=            -89.8848 YYYZ=            -15.8943 ZZZX=             -0.9151
 ZZZY=             -4.3729 XXYY=           -369.5496 XXZZ=           -460.8988 YYZZ=           -122.9611
 XXYZ=             -7.5700 YYXZ=             11.7580 ZZXY=             -3.7869
 N-N= 7.873195919569D+02 E-N=-3.191093111079D+03  KE= 6.852719146829D+02
 Calling FoFJK, ICntrl=      2127 FMM=F ISym2X=0 I1Cent= 0 IOpClX= 0 NMat=1 NMatS=1 NMatT=0.
 ***** Axes restored to original set *****
 -------------------------------------------------------------------
 Center     Atomic                   Forces (Hartrees/Bohr)
 Number     Number              X              Y              Z
 -------------------------------------------------------------------
      1        6           0.005053441   -0.004194654    0.024904024
      2        8           0.004188516    0.003087974    0.009947023
      3        1          -0.010979340   -0.000484581   -0.003811459
      4        1          -0.004788604    0.002573163   -0.002515156
      5        1           0.002078840    0.003304939   -0.009380445
      6        6          -0.023680235   -0.003768617    0.033303697
      7        8           0.031350578    0.002430832   -0.030773788
      8        6          -0.013622679    0.004909719   -0.017875554
      9        6           0.006026925    0.001838062    0.004834140
     10        6           0.015032672   -0.019743792   -0.007622859
     11        6           0.012217719    0.008133927   -0.006295755
     12        1          -0.004130344    0.000245243    0.009414484
     13        1           0.002402056    0.003814387    0.007969720
     14        8           0.002074853    0.003645372   -0.009257509
     15        1          -0.010885537   -0.000757248    0.004630978
     16        1           0.004633122    0.007106192    0.002411811
     17        8          -0.015821698   -0.000526881    0.001376722
     18        1           0.011515374   -0.005891896    0.006958532
     19        1          -0.008293688    0.006716270   -0.000996653
     20        8           0.021522892   -0.008480627   -0.006323346
     21        1          -0.009576029   -0.005689374   -0.009824920
     22        1          -0.003483443   -0.001284491    0.000689780
     23        8          -0.023422342    0.007674288   -0.008020563
     24        1           0.010586952   -0.004658208    0.006257095
 -------------------------------------------------------------------
 Cartesian Forces:  Max     0.033303697 RMS     0.011151735

 GradGradGradGradGradGradGradGradGradGradGradGradGradGradGradGradGradGrad
 Berny optimization.
 Internal  Forces:  Max     0.043717918 RMS     0.010301395
 Search for a local minimum.
 Step number   1 out of a maximum of  125
 All quantities printed in internal units (Hartrees-Bohrs-Radians)
 Mixed Optimization -- RFO/linear search
 Second derivative matrix not updated -- first step.
 ITU=  0
     Eigenvalues ---    0.00235   0.00287   0.00383   0.00400   0.00474
     Eigenvalues ---    0.00546   0.01330   0.01367   0.01374   0.01398
     Eigenvalues ---    0.01513   0.03781   0.04319   0.04408   0.04772
     Eigenvalues ---    0.05219   0.05249   0.05269   0.05567   0.06358
     Eigenvalues ---    0.07288   0.07362   0.07927   0.08477   0.11472
     Eigenvalues ---    0.11550   0.13692   0.13970   0.15909   0.16000
     Eigenvalues ---    0.16000   0.16000   0.16000   0.16000   0.17086
     Eigenvalues ---    0.18266   0.19154   0.19519   0.19831   0.22028
     Eigenvalues ---    0.22170   0.24991   0.25000   0.28507   0.28855
     Eigenvalues ---    0.29519   0.29643   0.30691   0.33939   0.34161
     Eigenvalues ---    0.34212   0.34235   0.34424   0.34470   0.34557
     Eigenvalues ---    0.41374   0.41777   0.41860   0.42126   0.43452
     Eigenvalues ---    0.52821   0.52872   0.52885   0.52899   0.52984
     Eigenvalues ---    0.90276
 RFO step:  Lambda=-4.95606299D-02 EMin= 2.34970769D-03
 Linear search not attempted -- first point.
 Maximum step size (   0.300) exceeded in Quadratic search.
    -- Step size scaled by   0.819
 Iteration  1 RMS(Cart)=  0.23652966 RMS(Int)=  0.01210893
 Iteration  2 RMS(Cart)=  0.02330377 RMS(Int)=  0.00089850
 Iteration  3 RMS(Cart)=  0.00030850 RMS(Int)=  0.00088982
 Iteration  4 RMS(Cart)=  0.00000018 RMS(Int)=  0.00088982
 Variable       Old X    -DE/DX   Delta X   Delta X   Delta X     New X
                                 (Linear)    (Quad)   (Total)
    R1        2.67116   0.00613   0.00000   0.01038   0.01038   2.68154
    R2        2.06543  -0.00358   0.00000  -0.00744  -0.00744   2.05799
    R3        2.06400   0.00668   0.00000   0.01384   0.01384   2.07784
    R4        2.86607   0.00251   0.00000   0.00577   0.00577   2.87184
    R5        1.83773  -0.01162   0.00000  -0.01645  -0.01645   1.82128
    R6        2.32806  -0.04372   0.00000  -0.03759  -0.03759   2.29046
    R7        2.88681   0.02189   0.00000   0.05182   0.05182   2.93863
    R8        2.90306   0.01603   0.00000   0.03883   0.03883   2.94189
    R9        2.06974   0.00237   0.00000   0.00496   0.00496   2.07470
   R10        2.68763   0.00528   0.00000   0.00919   0.00919   2.69681
   R11        2.91044   0.00222   0.00000   0.00544   0.00544   2.91588
   R12        2.07433   0.00050   0.00000   0.00105   0.00105   2.07539
   R13        2.69207   0.01281   0.00000   0.02244   0.02244   2.71452
   R14        2.88932  -0.00141   0.00000  -0.00335  -0.00335   2.88597
   R15        2.07060   0.00062   0.00000   0.00129   0.00129   2.07189
   R16        2.69728   0.00272   0.00000   0.00481   0.00481   2.70209
   R17        2.06935  -0.00043   0.00000  -0.00090  -0.00090   2.06845
   R18        2.06621   0.00617   0.00000   0.01283   0.01283   2.07904
   R19        2.69101   0.00606   0.00000   0.01060   0.01060   2.70162
   R20        1.83748  -0.01181   0.00000  -0.01672  -0.01672   1.82076
   R21        1.83821  -0.01447   0.00000  -0.02051  -0.02051   1.81770
   R22        1.83668  -0.01396   0.00000  -0.01973  -0.01973   1.81695
   R23        1.83761  -0.01293   0.00000  -0.01831  -0.01831   1.81930
    A1        1.89497   0.00741   0.00000   0.03263   0.03232   1.92730
    A2        1.89387   0.00643   0.00000   0.02820   0.02791   1.92179
    A3        1.92697  -0.00856   0.00000  -0.02472  -0.02465   1.90232
    A4        1.92656  -0.00085   0.00000  -0.00438  -0.00507   1.92149
    A5        1.91043  -0.00274   0.00000  -0.01795  -0.01789   1.89254
    A6        1.91099  -0.00162   0.00000  -0.01323  -0.01319   1.89781
    A7        1.87619  -0.00062   0.00000  -0.00241  -0.00241   1.87379
    A8        2.11798  -0.01629   0.00000  -0.04418  -0.04465   2.07333
    A9        2.04303   0.04366   0.00000   0.11971   0.11925   2.16228
   A10        2.12188  -0.02728   0.00000  -0.07422  -0.07467   2.04721
   A11        2.01561   0.03350   0.00000   0.11759   0.11797   2.13358
   A12        1.86411  -0.01360   0.00000  -0.07447  -0.07263   1.79147
   A13        1.89282  -0.01668   0.00000  -0.03938  -0.04343   1.84939
   A14        1.92887  -0.01322   0.00000  -0.05845  -0.05579   1.87308
   A15        1.88958  -0.00052   0.00000   0.02064   0.01936   1.90894
   A16        1.86730   0.00907   0.00000   0.02880   0.02765   1.89494
   A17        2.01558  -0.00489   0.00000  -0.02059  -0.02094   1.99464
   A18        1.95335  -0.00718   0.00000  -0.04025  -0.04307   1.91028
   A19        1.83605   0.02274   0.00000   0.10028   0.10035   1.93640
   A20        1.87740   0.00168   0.00000  -0.02730  -0.02878   1.84862
   A21        1.91801  -0.01571   0.00000  -0.04837  -0.04792   1.87009
   A22        1.85723   0.00380   0.00000   0.04298   0.04267   1.89990
   A23        1.95210  -0.00934   0.00000  -0.02317  -0.02423   1.92787
   A24        1.93255   0.00014   0.00000  -0.02019  -0.02058   1.91198
   A25        1.91878   0.00335   0.00000   0.02543   0.02547   1.94425
   A26        1.88432   0.00031   0.00000  -0.00933  -0.00973   1.87459
   A27        1.78133   0.01162   0.00000   0.06025   0.06028   1.84161
   A28        1.99016  -0.00586   0.00000  -0.02907  -0.02887   1.96128
   A29        1.93950  -0.00666   0.00000  -0.03733  -0.03726   1.90224
   A30        1.95260  -0.00062   0.00000  -0.01167  -0.01168   1.94092
   A31        1.89918  -0.01055   0.00000  -0.02981  -0.02968   1.86950
   A32        1.91100   0.00078   0.00000   0.00168   0.00034   1.91134
   A33        1.88009   0.01117   0.00000   0.05142   0.05078   1.93087
   A34        1.87901   0.00672   0.00000   0.03024   0.02980   1.90881
   A35        1.86806   0.00138   0.00000   0.00540   0.00540   1.87346
   A36        1.88091   0.00302   0.00000   0.01181   0.01181   1.89271
   A37        1.88426   0.00191   0.00000   0.00746   0.00746   1.89172
   A38        1.88331   0.00440   0.00000   0.01718   0.01718   1.90049
    D1        1.04720   0.00336   0.00000   0.01199   0.01257   1.05977
    D2       -1.04720  -0.00366   0.00000  -0.01807  -0.01862  -1.06582
    D3        3.14159  -0.00054   0.00000  -0.00456  -0.00459   3.13700
    D4       -0.02957  -0.00101   0.00000  -0.01255  -0.01233  -0.04189
    D5        3.13798  -0.00462   0.00000  -0.06807  -0.06832   3.06966
    D6        2.05550   0.00112   0.00000   0.00117   0.00139   2.05689
    D7       -1.06014  -0.00249   0.00000  -0.05435  -0.05460  -1.11474
    D8       -2.11363  -0.00265   0.00000  -0.02377  -0.02350  -2.13713
    D9        1.05392  -0.00626   0.00000  -0.07929  -0.07950   0.97442
   D10       -0.02602  -0.00293   0.00000  -0.01541  -0.01591  -0.04193
   D11       -2.17862   0.00207   0.00000   0.03832   0.03970  -2.13892
   D12        2.09755   0.00660   0.00000   0.06200   0.06039   2.15794
   D13        3.14159  -0.00672   0.00000  -0.07154  -0.07156   3.07004
   D14        0.98899  -0.00173   0.00000  -0.01781  -0.01594   0.97304
   D15       -1.01803   0.00281   0.00000   0.00586   0.00475  -1.01328
   D16        3.12086   0.00581   0.00000   0.12278   0.12373  -3.03860
   D17       -1.00654  -0.00181   0.00000   0.03533   0.03762  -0.96893
   D18        1.00309   0.01219   0.00000   0.12388   0.12492   1.12802
   D19       -1.04426   0.00180   0.00000   0.06376   0.06328  -0.98099
   D20        1.11152  -0.00582   0.00000  -0.02369  -0.02283   1.08869
   D21        3.12116   0.00817   0.00000   0.06486   0.06447  -3.09756
   D22        0.99555   0.00503   0.00000   0.07788   0.07598   1.07154
   D23       -3.13185  -0.00259   0.00000  -0.00956  -0.01013   3.14121
   D24       -1.12221   0.01141   0.00000   0.07898   0.07718  -1.04503
   D25        2.00493  -0.01770   0.00000  -0.08947  -0.08878   1.91615
   D26       -2.07914   0.01261   0.00000   0.04403   0.04278  -2.03636
   D27        0.00000   0.00170   0.00000   0.00182   0.00238   0.00238
   D28       -3.12566  -0.01540   0.00000  -0.11305  -0.11270   3.04483
   D29        1.05505  -0.00959   0.00000  -0.07167  -0.07175   0.98330
   D30       -1.15972  -0.00457   0.00000  -0.03797  -0.03788  -1.19760
   D31        0.96229  -0.00365   0.00000  -0.02220  -0.02178   0.94051
   D32       -1.14019   0.00217   0.00000   0.01918   0.01917  -1.12102
   D33        2.92823   0.00719   0.00000   0.05288   0.05304   2.98126
   D34       -1.05269  -0.00087   0.00000  -0.03279  -0.03287  -1.08557
   D35        3.12801   0.00495   0.00000   0.00859   0.00807   3.13609
   D36        0.91324   0.00997   0.00000   0.04229   0.04194   0.95519
   D37       -2.07517  -0.00468   0.00000  -0.04168  -0.04401  -2.11918
   D38        2.02772  -0.00393   0.00000  -0.05173  -0.05199   1.97573
   D39        0.00000  -0.00004   0.00000  -0.01866  -0.01607  -0.01607
   D40        1.09888   0.00220   0.00000   0.02591   0.02580   1.12468
   D41       -1.04308   0.00646   0.00000   0.05919   0.05898  -0.98410
   D42       -3.11698   0.00534   0.00000   0.04812   0.04809  -3.06889
   D43       -3.05394  -0.00334   0.00000  -0.02031  -0.02029  -3.07422
   D44        1.08729   0.00092   0.00000   0.01297   0.01289   1.10019
   D45       -0.98661  -0.00020   0.00000   0.00189   0.00200  -0.98461
   D46       -0.95145  -0.00406   0.00000  -0.02729  -0.02718  -0.97863
   D47       -3.09340   0.00021   0.00000   0.00600   0.00600  -3.08741
   D48        1.11588  -0.00091   0.00000  -0.00508  -0.00489   1.11098
   D49        2.18207   0.00070   0.00000  -0.01256  -0.01334   2.16873
   D50       -2.02702  -0.00240   0.00000   0.00406   0.00511  -2.02191
   D51        0.00000   0.00227   0.00000   0.01594   0.01567   0.01567
   D52       -3.13543   0.00193   0.00000   0.01120   0.01140  -3.12403
   D53       -1.03109  -0.00559   0.00000  -0.02066  -0.02178  -1.05287
   D54        1.02827   0.00483   0.00000   0.02464   0.02557   1.05384
         Item               Value     Threshold  Converged?
 Maximum Force            0.043718     0.000450     NO 
 RMS     Force            0.010301     0.000300     NO 
 Maximum Displacement     0.879551     0.001800     NO 
 RMS     Displacement     0.243277     0.001200     NO 
 Predicted change in Energy=-2.931648D-02
 GradGradGradGradGradGradGradGradGradGradGradGradGradGradGradGradGradGrad

                          Input orientation:                          
 ---------------------------------------------------------------------
 Center     Atomic      Atomic             Coordinates (Angstroms)
 Number     Number       Type             X           Y           Z
 ---------------------------------------------------------------------
      1          6           0       -0.038756    0.027525    0.278958
      2          8           0       -0.322540    0.209912    1.657285
      3          1           0        0.519074    0.207681    2.126918
      4          1           0        0.464617   -0.924576    0.117292
      5          1           0        0.586521    0.852964   -0.090742
      6          6           0       -1.344808    0.018632   -0.498005
      7          8           0       -2.387763    0.113256    0.112228
      8          6           0       -1.430888   -0.066927   -2.048317
      9          6           0       -0.162353   -0.096887   -2.950249
     10          6           0       -0.458147   -0.038752   -4.463534
     11          6           0        0.842008    0.065119   -5.257965
     12          1           0        1.425381   -0.848725   -5.107418
     13          1           0        1.434393    0.935844   -4.939673
     14          8           0        0.483578    0.212960   -6.634019
     15          1           0        1.301896    0.262765   -7.140193
     16          1           0       -1.995243    0.838292   -2.307989
     17          8           0       -2.241955   -1.205829   -2.334086
     18          1           0       -3.083163   -0.899771   -2.686111
     19          1           0        0.462607    0.779340   -2.731619
     20          8           0        0.607380   -1.286584   -2.714556
     21          1           0        1.490011   -1.026474   -2.435689
     22          1           0       -1.051552    0.855625   -4.687248
     23          8           0       -1.089403   -1.238506   -4.918159
     24          1           0       -1.918932   -1.009891   -5.349986
 ---------------------------------------------------------------------
                    Distance matrix (angstroms):
                    1          2          3          4          5
     1  C    0.000000
     2  O    1.419008   0.000000
     3  H    1.938708   0.963781   0.000000
     4  H    1.089043   2.068394   2.307286   0.000000
     5  H    1.099545   2.072559   2.310618   1.793820   0.000000
     6  C    1.519711   2.393094   3.224906   2.131255   2.142896
     7  O    2.356476   2.581025   3.538021   3.035323   3.071600
     8  C    2.713514   3.877700   4.616313   3.003059   2.957742
     9  C    3.233965   4.620514   5.131738   3.238514   3.104805
    10  C    4.761461   6.127369   6.667065   4.756065   4.583427
    11  C    5.606663   7.014115   7.393315   5.478623   5.233180
    12  H    5.650182   7.066622   7.367021   5.312854   5.363438
    13  H    5.498120   6.865395   7.162733   5.474900   4.923199
    14  O    6.935161   8.330399   8.761011   6.846499   6.575308
    15  H    7.542976   8.946351   9.300279   7.401480   7.110194
    16  H    3.343274   4.349275   5.136912   3.878222   3.403220
    17  O    3.633627   4.649679   5.433402   3.662498   4.155899
    18  H    4.349703   5.264743   6.112921   4.521772   4.824375
    19  H    3.143273   4.494795   4.892378   3.319583   2.644808
    20  O    3.332491   4.713517   5.067593   2.858460   3.385632
    21  H    3.288974   4.643967   4.825272   2.753095   3.138051
    22  H    5.135631   6.418839   7.022788   5.343359   4.879668
    23  O    5.451304   6.776611   7.369652   5.279138   5.521497
    24  H    6.024641   7.289597   7.958043   5.964873   6.116140
                    6          7          8          9         10
     6  C    0.000000
     7  O    1.212061   0.000000
     8  C    1.555055   2.369816   0.000000
     9  C    2.724893   3.791487   1.556779   0.000000
    10  C    4.063850   4.968312   2.603900   1.543019   0.000000
    11  C    5.238467   6.266794   3.935141   2.522011   1.527191
    12  H    5.447287   6.535302   4.257650   2.782003   2.149028
    13  H    5.319177   6.388054   4.192294   2.752079   2.181342
    14  O    6.405577   7.332556   4.977166   3.752785   2.379329
    15  H    7.154250   8.138399   5.788265   4.452977   3.217633
    16  H    2.090682   2.556795   1.097884   2.155584   2.788951
    17  O    2.382303   2.783109   1.427092   2.436012   3.013070
    18  H    2.941623   3.056223   1.957146   3.040644   3.285011
    19  H    2.972281   4.081144   2.183665   1.098248   2.125228
    20  O    3.229198   4.349843   2.466977   1.436461   2.398199
    21  H    3.589299   4.777865   3.098781   1.964488   2.980448
    22  H    4.282092   5.037017   2.821162   2.171432   1.096398
    23  O    4.602541   5.368220   3.118526   2.456702   1.429887
    24  H    4.992914   5.596163   3.468196   3.110929   1.965400
                   11         12         13         14         15
    11  C    0.000000
    12  H    1.094577   0.000000
    13  H    1.100178   1.792458   0.000000
    14  O    1.429634   2.084390   2.073022   0.000000
    15  H    1.947651   2.320093   2.304969   0.963503   0.000000
    16  H    4.165350   4.731120   4.324082   5.024950   5.878142
    17  O    4.435674   4.611751   4.989127   5.284970   6.149334
    18  H    4.790867   5.117842   5.371809   5.435603   6.357600
    19  H    2.652636   3.036766   2.417512   3.943343   4.517386
    20  O    2.889823   2.566444   3.251812   4.198351   4.740158
    21  H    3.094628   2.678414   3.181779   4.491667   4.881585
    22  H    2.129833   3.035877   2.500015   2.561164   3.450673
    23  O    2.354836   2.551840   3.331338   2.743210   3.592988
    24  H    2.964271   3.356969   3.898593   2.985993   3.898490
                   16         17         18         19         20
    16  H    0.000000
    17  O    2.059121   0.000000
    18  H    2.085044   0.961885   0.000000
    19  H    2.494787   3.378400   3.923514   0.000000
    20  O    3.384382   2.875759   3.710868   2.071061   0.000000
    21  H    3.954827   3.737655   4.581778   2.098595   0.961489
    22  H    2.559634   3.347241   3.348643   2.474465   3.351512
    23  O    3.456389   2.829642   3.011953   3.355800   2.781591
    24  H    3.560245   3.039471   2.909259   3.965970   3.661189
                   21         22         23         24
    21  H    0.000000
    22  H    3.882185   0.000000
    23  O    3.586222   2.107164   0.000000
    24  H    4.484896   2.161416   0.962734   0.000000
 Stoichiometry    C6H12O6
 Framework group  C1[X(C6H12O6)]
 Deg. of freedom    66
 Full point group                 C1      NOp   1
 Largest Abelian subgroup         C1      NOp   1
 Largest concise Abelian subgroup C1      NOp   1
                         Standard orientation:                         
 ---------------------------------------------------------------------
 Center     Atomic      Atomic             Coordinates (Angstroms)
 Number     Number       Type             X           Y           Z
 ---------------------------------------------------------------------
      1          6           0        2.682483   -1.054031    0.040826
      2          8           0        4.095712   -1.050714   -0.087065
      3          1           0        4.405769   -1.938183    0.125392
      4          1           0        2.393715   -1.305030    1.060448
      5          1           0        2.240731   -1.772503   -0.664618
      6          6           0        2.153475    0.333899   -0.280614
      7          8           0        2.944768    1.214711   -0.539688
      8          6           0        0.641758    0.694095   -0.336874
      9          6           0       -0.474134   -0.368995   -0.117368
     10          6           0       -1.905798    0.155619   -0.354062
     11          6           0       -2.916198   -0.984820   -0.250123
     12          1           0       -2.910931   -1.373188    0.773225
     13          1           0       -2.673994   -1.796342   -0.952378
     14          8           0       -4.198015   -0.442299   -0.576419
     15          1           0       -4.840658   -1.155691   -0.496295
     16          1           0        0.525463    1.084259   -1.356480
     17          8           0        0.459786    1.768609    0.584481
     18          1           0        0.277791    2.570251    0.085010
     19          1           0       -0.335512   -1.196400   -0.826123
     20          8           0       -0.430104   -0.891097    1.220127
     21          1           0       -0.304082   -1.842980    1.170136
     22          1           0       -1.981973    0.570069   -1.366247
     23          8           0       -2.288587    1.098550    0.650393
     24          1           0       -2.554312    1.919055    0.222585
 ---------------------------------------------------------------------
 Rotational constants (GHZ):      2.0041721      0.4159380      0.3751438
 Standard basis: 6-311G(d,p) (5D, 7F)
 There are   288 symmetry adapted basis functions of A   symmetry.
 Integral buffers will be    131072 words long.
 Raffenetti 2 integral format.
 Two-electron integral symmetry is turned on.
   288 basis functions,   480 primitive gaussians,   300 cartesian basis functions
    48 alpha electrons       48 beta electrons
       nuclear repulsion energy       773.9335488843 Hartrees.
 NAtoms=   24 NActive=   24 NUniq=   24 SFac= 1.00D+00 NAtFMM=   50 NAOKFM=F Big=F
 One-electron integrals computed using PRISM.
 NBasis=   288 RedAO= T  NBF=   288
 NBsUse=   288 1.00D-06 NBFU=   288
 Initial guess read from the read-write file.
 B after Tr=     0.000000    0.000000    0.000000
         Rot=    1.000000    0.000000    0.000000    0.000000 Ang=   0.00 deg.
 Initial guess orbital symmetries:
       Occupied  (A) (A) (A) (A) (A) (A) (A) (A) (A) (A) (A) (A)
                 (A) (A) (A) (A) (A) (A) (A) (A) (A) (A) (A) (A)
                 (A) (A) (A) (A) (A) (A) (A) (A) (A) (A) (A) (A)
                 (A) (A) (A) (A) (A) (A) (A) (A) (A) (A) (A) (A)
       Virtual   (A) (A) (A) (A) (A) (A) (A) (A) (A) (A) (A) (A)
                 (A) (A) (A) (A) (A) (A) (A) (A) (A) (A) (A) (A)
                 (A) (A) (A) (A) (A) (A) (A) (A) (A) (A) (A) (A)
                 (A) (A) (A) (A) (A) (A) (A) (A) (A) (A) (A) (A)
                 (A) (A) (A) (A) (A) (A) (A) (A) (A) (A) (A) (A)
                 (A) (A) (A) (A) (A) (A) (A) (A) (A) (A) (A) (A)
                 (A) (A) (A) (A) (A) (A) (A) (A) (A) (A) (A) (A)
                 (A) (A) (A) (A) (A) (A) (A) (A) (A) (A) (A) (A)
                 (A) (A) (A) (A) (A) (A) (A) (A) (A) (A) (A) (A)
                 (A) (A) (A) (A) (A) (A) (A) (A) (A) (A) (A) (A)
                 (A) (A) (A) (A) (A) (A) (A) (A) (A) (A) (A) (A)
                 (A) (A) (A) (A) (A) (A) (A) (A) (A) (A) (A) (A)
                 (A) (A) (A) (A) (A) (A) (A) (A) (A) (A) (A) (A)
                 (A) (A) (A) (A) (A) (A) (A) (A) (A) (A) (A) (A)
                 (A) (A) (A) (A) (A) (A) (A) (A) (A) (A) (A) (A)
                 (A) (A) (A) (A) (A) (A) (A) (A) (A) (A) (A) (A)
                 (A) (A) (A) (A) (A) (A) (A) (A) (A) (A) (A) (A)
                 (A) (A) (A) (A) (A) (A) (A) (A) (A) (A) (A) (A)
                 (A) (A) (A) (A) (A) (A) (A) (A) (A) (A) (A) (A)
                 (A) (A) (A) (A) (A) (A) (A) (A) (A) (A) (A) (A)
 Harris functional with IExCor=  402 diagonalized for initial guess.
 ExpMin= 1.03D-01 ExpMax= 8.59D+03 ExpMxC= 1.30D+03 IAcc=1 IRadAn=         1 AccDes= 0.00D+00
 HarFok:  IExCor=  402 AccDes= 0.00D+00 IRadAn=         1 IDoV= 1
 ScaDFX=  1.000000  1.000000  1.000000  1.000000
 FoFCou: FMM=F IPFlag=           0 FMFlag=      100000 FMFlg1=           0
         NFxFlg=           0 DoJE=T BraDBF=F KetDBF=T FulRan=T
         Omega=  0.000000  0.000000  1.000000  0.000000  0.000000 ICntrl=     500 IOpCl=  0
         NMat0=    1 NMatS0=    1 NMatT0=    0 NMatD0=    1 NMtDS0=    0 NMtDT0=    0
         I1Cent=           4 NGrid=           0.
 Petite list used in FoFCou.
 Requested convergence on RMS density matrix=1.00D-08 within 128 cycles.
 Requested convergence on MAX density matrix=1.00D-06.
 Requested convergence on             energy=1.00D-06.
 No special actions if energy rises.
 Keep R1 ints in memory in canonical form, NReq=1033417454.
 Integral accuracy reduced to 1.0D-05 until final iterations.
 Initial convergence to 1.0D-05 achieved.  Increase integral accuracy.
 SCF Done:  E(RB3LYP) =  -687.317758363     A.U. after   13 cycles
             Convg  =    0.6638D-08             -V/T =  2.0031
 Calling FoFJK, ICntrl=      2127 FMM=F ISym2X=0 I1Cent= 0 IOpClX= 0 NMat=1 NMatS=1 NMatT=0.
 ***** Axes restored to original set *****
 -------------------------------------------------------------------
 Center     Atomic                   Forces (Hartrees/Bohr)
 Number     Number              X              Y              Z
 -------------------------------------------------------------------
      1        6          -0.000474382    0.003305304    0.007154415
      2        8           0.000825751    0.000654855   -0.001996701
      3        1          -0.001901459   -0.000502994   -0.001694880
      4        1           0.004385773   -0.003878140   -0.006701444
      5        1           0.002297097   -0.001818120   -0.005082657
      6        6          -0.010095956    0.004579323    0.013667226
      7        8           0.007642759   -0.001658361   -0.010997987
      8        6          -0.003387993   -0.003579242   -0.012478073
      9        6           0.002644183   -0.004716601    0.005879806
     10        6           0.002617386   -0.007879350   -0.005299222
     11        6           0.001359113    0.004767609   -0.006830061
     12        1          -0.001153212   -0.000403867    0.002126902
     13        1          -0.000075410   -0.000202900    0.003710121
     14        8           0.002113664    0.002222652    0.000603718
     15        1          -0.002733514   -0.000943272    0.000597483
     16        1           0.003507623    0.002972729   -0.000351904
     17        8          -0.000720807    0.000424770    0.001105453
     18        1           0.002600076   -0.001718195    0.003019972
     19        1          -0.003285303    0.002888685    0.002760815
     20        8          -0.000025662    0.000601219    0.008086025
     21        1          -0.001929009   -0.000536683   -0.000525160
     22        1          -0.002565730   -0.000499288   -0.000022974
     23        8          -0.005840945    0.006445392    0.002027225
     24        1           0.004195953   -0.000525525    0.001241904
 -------------------------------------------------------------------
 Cartesian Forces:  Max     0.013667226 RMS     0.004369696

 GradGradGradGradGradGradGradGradGradGradGradGradGradGradGradGradGradGrad
 Berny optimization.
 Using GEDIIS/GDIIS optimizer.
 Internal  Forces:  Max     0.018470323 RMS     0.004300333
 Search for a local minimum.
 Step number   2 out of a maximum of  125
 All quantities printed in internal units (Hartrees-Bohrs-Radians)
 Mixed Optimization -- RFO/linear search
 Update second derivatives using D2CorX and points    1    2
 DE= -1.25D-02 DEPred=-2.93D-02 R= 4.27D-01
 Trust test= 4.27D-01 RLast= 4.66D-01 DXMaxT set to 3.00D-01
 ITU=  0  0
 Use linear search instead of GDIIS.
     Eigenvalues ---    0.00236   0.00306   0.00383   0.00400   0.00488
     Eigenvalues ---    0.00561   0.01330   0.01374   0.01380   0.01398
     Eigenvalues ---    0.01513   0.03847   0.04070   0.04595   0.04782
     Eigenvalues ---    0.04870   0.05177   0.05454   0.05873   0.06533
     Eigenvalues ---    0.07023   0.07493   0.07656   0.09055   0.10924
     Eigenvalues ---    0.11196   0.13546   0.13860   0.15966   0.16000
     Eigenvalues ---    0.16000   0.16000   0.16007   0.16042   0.17629
     Eigenvalues ---    0.19096   0.19658   0.19914   0.21786   0.22095
     Eigenvalues ---    0.22278   0.24720   0.28161   0.28495   0.29375
     Eigenvalues ---    0.29519   0.30687   0.33927   0.34120   0.34190
     Eigenvalues ---    0.34204   0.34235   0.34376   0.34522   0.39810
     Eigenvalues ---    0.41481   0.41835   0.42076   0.42900   0.45328
     Eigenvalues ---    0.51888   0.52841   0.52881   0.52903   0.53006
     Eigenvalues ---    0.87513
 RFO step:  Lambda=-7.13722968D-03 EMin= 2.35556513D-03
 Quartic linear search produced a step of -0.21784.
 Iteration  1 RMS(Cart)=  0.11180484 RMS(Int)=  0.00344758
 Iteration  2 RMS(Cart)=  0.00710157 RMS(Int)=  0.00048635
 Iteration  3 RMS(Cart)=  0.00002797 RMS(Int)=  0.00048619
 Iteration  4 RMS(Cart)=  0.00000001 RMS(Int)=  0.00048619
 Variable       Old X    -DE/DX   Delta X   Delta X   Delta X     New X
                                 (Linear)    (Quad)   (Total)
    R1        2.68154  -0.00335  -0.00226  -0.00108  -0.00334   2.67819
    R2        2.05799   0.00641   0.00162   0.01078   0.01240   2.07040
    R3        2.07784   0.00165  -0.00302   0.00995   0.00694   2.08477
    R4        2.87184   0.00014  -0.00126   0.00295   0.00169   2.87353
    R5        1.82128  -0.00249   0.00358  -0.01133  -0.00775   1.81353
    R6        2.29046  -0.01224   0.00819  -0.02850  -0.02031   2.27015
    R7        2.93863  -0.00545  -0.01129   0.00937  -0.00191   2.93671
    R8        2.94189  -0.01215  -0.00846  -0.01451  -0.02297   2.91892
    R9        2.07470   0.00073  -0.00108   0.00389   0.00281   2.07751
   R10        2.69681  -0.00086  -0.00200   0.00269   0.00069   2.69750
   R11        2.91588   0.00232  -0.00118   0.00861   0.00742   2.92331
   R12        2.07539   0.00099  -0.00023   0.00269   0.00246   2.07785
   R13        2.71452   0.00014  -0.00489   0.01065   0.00576   2.72028
   R14        2.88597  -0.00015   0.00073  -0.00190  -0.00117   2.88481
   R15        2.07189   0.00099  -0.00028   0.00279   0.00251   2.07440
   R16        2.70209  -0.00528  -0.00105  -0.00754  -0.00858   2.69351
   R17        2.06845   0.00001   0.00020  -0.00038  -0.00018   2.06827
   R18        2.07904   0.00087  -0.00280   0.00779   0.00500   2.08403
   R19        2.70162  -0.00087  -0.00231   0.00332   0.00101   2.70263
   R20        1.82076  -0.00268   0.00364  -0.01174  -0.00810   1.81266
   R21        1.81770  -0.00393   0.00447  -0.01533  -0.01086   1.80683
   R22        1.81695  -0.00207   0.00430  -0.01226  -0.00796   1.80899
   R23        1.81930  -0.00430   0.00399  -0.01483  -0.01084   1.80846
    A1        1.92730   0.00400  -0.00704   0.04230   0.03527   1.96257
    A2        1.92179   0.00316  -0.00608   0.03584   0.02975   1.95153
    A3        1.90232   0.00008   0.00537  -0.00525   0.00016   1.90247
    A4        1.92149  -0.00289   0.00110  -0.03168  -0.03128   1.89021
    A5        1.89254  -0.00275   0.00390  -0.02499  -0.02134   1.87120
    A6        1.89781  -0.00175   0.00287  -0.01788  -0.01527   1.88254
    A7        1.87379  -0.00112   0.00052  -0.00622  -0.00570   1.86809
    A8        2.07333   0.01574   0.00973   0.02864   0.03678   2.11010
    A9        2.16228  -0.01847  -0.02598  -0.00235  -0.02981   2.13247
   A10        2.04721   0.00275   0.01627  -0.02395  -0.00909   2.03812
   A11        2.13358  -0.01837  -0.02570  -0.03512  -0.06125   2.07233
   A12        1.79147   0.00592   0.01582  -0.00670   0.00810   1.79957
   A13        1.84939   0.00268   0.00946  -0.02286  -0.01243   1.83696
   A14        1.87308   0.00125   0.01215  -0.01690  -0.00659   1.86649
   A15        1.90894   0.00947  -0.00422   0.03306   0.02805   1.93698
   A16        1.89494   0.00001  -0.00602   0.05912   0.05308   1.94802
   A17        1.99464  -0.00024   0.00456  -0.00507  -0.00080   1.99383
   A18        1.91028  -0.00206   0.00938  -0.05470  -0.04482   1.86546
   A19        1.93640  -0.00536  -0.02186   0.02195  -0.00022   1.93618
   A20        1.84862  -0.00091   0.00627  -0.00859  -0.00256   1.84606
   A21        1.87009   0.00792   0.01044   0.02786   0.03802   1.90811
   A22        1.89990   0.00107  -0.00929   0.01999   0.01047   1.91036
   A23        1.92787  -0.00152   0.00528  -0.00871  -0.00370   1.92416
   A24        1.91198  -0.00046   0.00448  -0.02202  -0.01754   1.89443
   A25        1.94425   0.00019  -0.00555   0.01751   0.01155   1.95580
   A26        1.87459  -0.00052   0.00212  -0.00959  -0.00734   1.86726
   A27        1.84161   0.00438  -0.01313   0.05433   0.04103   1.88265
   A28        1.96128  -0.00199   0.00629  -0.02997  -0.02364   1.93764
   A29        1.90224  -0.00214   0.00812  -0.02919  -0.02116   1.88108
   A30        1.94092  -0.00196   0.00254  -0.01853  -0.01606   1.92486
   A31        1.86950  -0.00069   0.00646  -0.01471  -0.00820   1.86130
   A32        1.91134   0.00054  -0.00007   0.00010  -0.00028   1.91105
   A33        1.93087   0.00236  -0.01106   0.03743   0.02638   1.95726
   A34        1.90881   0.00188  -0.00649   0.02497   0.01844   1.92725
   A35        1.87346   0.00155  -0.00118   0.00944   0.00826   1.88173
   A36        1.89271   0.00102  -0.00257   0.00962   0.00705   1.89977
   A37        1.89172  -0.00004  -0.00162   0.00288   0.00126   1.89298
   A38        1.90049  -0.00080  -0.00374   0.00338  -0.00036   1.90013
    D1        1.05977   0.00043  -0.00274  -0.00156  -0.00424   1.05553
    D2       -1.06582  -0.00069   0.00406  -0.01360  -0.00960  -1.07542
    D3        3.13700  -0.00049   0.00100  -0.01000  -0.00899   3.12801
    D4       -0.04189  -0.00064   0.00269  -0.03196  -0.02996  -0.07186
    D5        3.06966   0.00016   0.01488   0.06271   0.07830  -3.13523
    D6        2.05689   0.00261  -0.00030   0.00130   0.00001   2.05690
    D7       -1.11474   0.00341   0.01189   0.09597   0.10827  -1.00647
    D8       -2.13713  -0.00347   0.00512  -0.06166  -0.05696  -2.19409
    D9        0.97442  -0.00267   0.01732   0.03301   0.05131   1.02573
   D10       -0.04193  -0.00325   0.00347  -0.11441  -0.11052  -0.15245
   D11       -2.13892   0.00149  -0.00865  -0.06406  -0.07237  -2.21129
   D12        2.15794  -0.00195  -0.01315  -0.11811  -0.12975   2.02818
[...]
 6,-0.00028854,0.00036675,-0.00004119,-0.00010770,-0.00001009,0.0000251
 1,-0.00004219,0.00083254,0.00015653,0.00001423,0.00018718,-0.00024651,
 0.00025070,-0.01309085,0.00471100,-0.00044103,0.00021554,-0.00188840,-
 0.00277931,-0.23022842,0.08340032,-0.02235043,-0.01777979,0.00977095,-
 0.00463981,-0.00020884,0.00090620,-0.00119360,0.00008136,-0.00028683,0
 .00009367,0.00018904,-0.00005109,-0.00027172,-0.00001597,0.00000464,0.
 00001244,0.00009489,-0.00005891,0.00011921,-0.00001435,0.00003303,-0.0
 0001345,0.24799286,0.00164852,-0.00019822,0.00001925,-0.00023668,-0.00
 001906,-0.00005311,0.00008318,-0.00004136,0.00003566,-0.00024270,0.000
 16206,-0.00012741,-0.00020496,-0.00011013,-0.00037847,-0.00535553,0.00
 502410,0.00135720,0.00033813,-0.00156196,-0.00042621,0.08002637,-0.077
 18766,0.00714768,-0.00536238,0.00507611,-0.00073055,0.00044763,-0.0005
 9893,0.00044872,-0.00015358,0.00005625,-0.00010017,-0.00005972,-0.0000
 1283,-0.00000385,0.00001354,0.00001728,-0.00002608,0.00006309,0.000050
 79,-0.00010421,-0.00000390,-0.00000608,-0.00000297,-0.09567254,0.10761
 652,0.00231585,-0.00125098,-0.00017625,0.00024659,-0.00035951,-0.00022
 987,0.00009471,-0.00001440,0.00000243,0.00040780,0.00062523,-0.0011729
 5,-0.00045620,-0.00030300,0.00039214,-0.02704740,0.01314602,0.00095735
 ,-0.00049304,-0.00503997,-0.00363765,-0.02898466,0.01520044,-0.0582944
 5,0.02062132,-0.01023614,0.00451468,0.00058851,-0.00086467,0.00075620,
 -0.00011353,0.00020074,0.00024686,-0.00003810,0.00001722,0.00022589,0.
 00000594,-0.00002229,0.00000289,-0.00009498,-0.00001366,0.00000942,0.0
 0001496,-0.00001017,0.00000945,0.02512259,-0.01486999,0.05566881,-0.00
 154499,0.00301208,-0.00010547,0.00057911,-0.00013362,-0.00000576,-0.00
 019177,0.00009556,-0.00003219,0.00061561,-0.00091509,0.00021302,-0.000
 15504,-0.00068587,-0.00108158,-0.00121839,-0.01698029,-0.00038327,0.00
 013965,0.00180025,-0.00269724,-0.05862291,-0.01509751,0.00463647,-0.00
 278963,-0.02322641,0.00064459,-0.00161337,-0.00081496,-0.00233164,0.00
 004230,0.00018407,-0.00035783,0.00008719,0.00001265,-0.00013080,0.0001
 5623,0.00016186,-0.00014271,0.00019700,0.00023547,0.00064266,0.0000143
 0,0.00002784,-0.00002925,0.01387109,0.02431856,0.00168063,0.05578722,-
 0.00059432,0.00281884,-0.00118632,-0.00033224,0.00008369,-0.00037961,0
 .00012858,-0.00013730,0.00007982,0.00003316,-0.00031173,0.00013422,0.0
 0016558,-0.00023047,-0.00183426,-0.00541097,-0.02946291,0.00009845,-0.
 00367464,-0.00110705,-0.00666939,-0.01685608,-0.21888723,0.02744982,-0
 .00194431,-0.03147336,0.00256982,-0.00220751,-0.00563535,-0.00415686,0
 .00023915,0.00039222,-0.00046142,-0.00019396,0.00001088,0.00009498,0.0
 0031729,0.00036459,-0.00039833,0.00021956,0.00083026,0.00086293,0.0000
 9834,-0.00001922,0.00005489,0.00241467,-0.04006800,0.00279274,0.044757
 25,0.39167497,-0.00007331,0.00578088,-0.00226776,-0.00095148,-0.002708
 34,-0.00103886,-0.00007899,0.00028053,0.00080172,-0.00025410,-0.000289
 98,0.00004444,0.00060434,-0.00308777,-0.00297366,-0.00148944,-0.038733
 29,0.00828367,-0.00848014,-0.00008745,-0.00644927,0.00269545,-0.022475
 62,-0.09807449,0.00055436,0.02894260,0.00234595,-0.00289734,-0.0060853
 5,0.00098966,0.00030766,0.00056244,0.00031111,-0.00008345,-0.00011506,
 -0.00000914,0.00014486,0.00016840,-0.00030286,0.00036612,0.00069083,-0
 .00060687,0.00005411,0.00012182,0.00025165,0.00187668,0.00505362,0.005
 85238,0.03287100,0.12353873,0.55152588,0.00000949,0.00030123,-0.000116
 05,-0.00005190,0.00004699,-0.00010825,0.00002972,-0.00000349,-0.000005
 38,0.00003530,-0.00018613,-0.00003672,0.00001004,-0.00014711,-0.000069
 32,0.00014335,-0.00227398,0.00086442,-0.00142538,-0.00048505,-0.000821
 63,-0.00081277,-0.00562307,-0.00684636,0.00167951,-0.00161100,-0.00096
 632,0.00057485,-0.00099842,0.00161526,-0.00021297,-0.00037065,0.000099
 60,-0.00013620,-0.00004797,0.00016514,-0.00007145,-0.00000691,0.000082
 28,-0.00002922,0.00006498,-0.00048573,0.00001794,-0.00001070,0.0000447
 1,0.00035856,0.00159591,0.00110161,-0.01103630,-0.01430165,-0.03029339
 ,0.01461971,-0.00001217,0.00023036,0.00025521,0.00011550,0.00045418,0.
 00059566,0.00000407,0.00004131,-0.00010124,0.00002758,-0.00007164,-0.0
 0001482,-0.00007769,0.00044627,-0.00080945,0.00029750,-0.00694484,0.00
 348759,-0.00151833,0.00008133,-0.00156722,-0.00524057,-0.02563484,-0.0
 4358665,-0.00203611,0.00168353,0.00036583,-0.00118572,-0.00263386,0.00
 419096,-0.00021059,-0.00033089,0.00018998,0.00005483,-0.00000750,-0.00
 004550,-0.00000260,0.00003829,0.00002565,0.00013906,0.00007400,-0.0006
 5566,0.00000300,0.00011741,0.00004258,0.00016162,0.00006718,-0.0002564
 8,-0.01388784,-0.08309252,-0.09783124,0.02231352,0.12004503,-0.0002830
 2,-0.00028839,-0.00059486,0.00025710,0.00019396,0.00081692,-0.00001431
 ,-0.00000092,-0.00012139,0.00017546,0.00000818,-0.00007491,0.00000822,
 -0.00022049,-0.00036840,-0.00197252,0.00137517,-0.00203205,0.00281568,
 0.00101310,0.00108015,-0.00096097,-0.00239399,0.00535316,0.00049864,0.
 00285788,0.00380863,0.00339227,0.01076642,0.00392893,0.00002096,-0.001
 35603,-0.00015387,0.00015229,0.00015940,0.00003709,-0.00053794,-0.0005
 4121,0.00075198,-0.00056250,-0.00102233,0.00041049,-0.00009240,-0.0001
 5094,-0.00029297,-0.00092633,0.00274569,-0.00041405,-0.03779095,-0.145
 08902,-0.43643977,0.03719610,0.14008985,0.43190845,-0.00011942,-0.0001
 2935,-0.00000257,0.00004999,0.00008381,0.00003764,0.00000133,-0.000005
 40,-0.00002574,0.00000458,-0.00002449,0.00000534,-0.00005347,0.0000297
 3,-0.00008733,-0.00022092,-0.00037157,-0.00015563,0.00045623,0.0001691
 2,-0.00019861,0.00034078,-0.01859836,-0.00247604,-0.04968612,-0.027815
 07,-0.00165321,-0.00127450,-0.01103473,0.00049346,0.00003590,0.0006332
 5,0.00007403,-0.00001320,0.00001246,-0.00021981,0.00016889,0.00002115,
 -0.00011555,0.00003745,0.00004521,0.00008133,0.00000736,0.00005481,0.0
 0000714,0.00002092,0.00041198,-0.00081767,-0.00216668,-0.00251847,0.00
 392861,0.00007858,0.00090277,0.00041936,0.06578673,0.00023458,-0.00004
 464,-0.00001091,-0.00000437,0.00008542,0.00014346,0.00003856,-0.000001
 29,-0.00000176,0.00004567,0.00000555,-0.00007054,0.00000193,0.00006336
 ,-0.00010641,-0.00180680,-0.00182873,-0.00099846,0.00066846,0.00217695
 ,-0.00207665,-0.00211389,-0.01340747,-0.00036059,-0.02455499,-0.284394
 97,-0.01891754,-0.00111319,-0.00868767,-0.00033605,-0.00021973,-0.0008
 0580,0.00047122,-0.00011437,0.00015190,0.00021915,0.00037043,0.0006646
 0,-0.00029628,0.00004120,0.00053049,-0.00009889,0.00005013,-0.00001467
 ,-0.00001200,-0.00094861,0.00054869,0.00061200,-0.00242316,-0.00023617
 ,0.00170562,0.00061736,0.00046881,0.00028190,0.01717549,0.31467622,-0.
 00022808,0.00022143,0.00003786,-0.00001737,-0.00010105,0.00005002,-0.0
 0001934,0.00000832,0.00001174,-0.00010952,-0.00001714,0.00012831,0.000
 03411,-0.00006711,0.00014565,0.00041154,0.00164009,0.00054182,-0.00072
 512,-0.00125648,-0.00113802,0.00252962,0.02412642,0.00402568,0.0006223
 7,-0.02066293,-0.05365281,-0.00310232,-0.02931456,-0.00039653,0.000322
 19,-0.00073135,0.00023713,-0.00002319,0.00000838,-0.00006955,0.0002764
 7,0.00035474,-0.00045914,-0.00002030,0.00063182,0.00047959,0.00007666,
 -0.00000008,0.00005471,0.00013263,-0.00077774,0.00072848,0.00370005,0.
 00372624,-0.00481487,-0.00027006,-0.00069328,-0.00127401,0.00161955,0.
 02171973,0.05745394,-0.00014478,0.00050152,-0.00005039,0.00048832,-0.0
 0007096,0.00128349,-0.00010245,0.00014563,-0.00001574,0.00045381,0.000
 02428,-0.00006683,0.00008080,-0.00004221,-0.00011218,-0.00513763,-0.00
 378237,-0.00615462,0.00513634,0.00278148,0.00103042,-0.04093018,0.0189
 4193,0.00358565,-0.18554491,0.07013459,0.00772595,-0.02686692,0.012293
 86,-0.00920676,-0.00207409,-0.00025898,0.00142286,0.00053262,-0.000927
 51,-0.00077796,-0.00016789,0.00048748,-0.00004723,0.00128272,-0.000163
 97,-0.00037058,-0.00005482,0.00005328,-0.00016925,-0.00391626,-0.00163
 378,0.00637661,0.00315598,-0.00248235,-0.00093848,-0.00029171,0.000426
 47,0.00029162,-0.01498392,0.01487457,-0.00202211,0.37492097,0.00018468
 ,0.00046862,-0.00028360,-0.00015627,0.00015476,-0.00004935,0.00007532,
 -0.00006064,-0.00001560,-0.00005158,0.00001011,-0.00001890,0.00018783,
 0.00016957,-0.00029534,0.00030515,-0.00149816,0.00024568,0.00149509,0.
 00049107,-0.00225602,-0.00065251,0.00143808,-0.00086321,0.04542089,-0.
 10238058,-0.02161024,-0.00510580,0.00236580,0.00125896,0.00044959,-0.0
 0056409,-0.00058923,-0.00040190,0.00012431,0.00029277,-0.00026049,0.00
 060434,-0.00024223,0.00006538,0.00067393,0.00001636,0.00004490,-0.0001
 7922,0.00000862,-0.00158735,0.00049644,0.00096231,-0.00223242,0.006255
 39,-0.00112913,0.00130707,-0.00041035,0.00007908,0.04240757,-0.0126259
 7,0.00293082,-0.03444283,0.19066053,0.00053320,0.00113317,0.00085425,-
 0.00008389,-0.00029812,-0.00038093,0.00002717,0.00007687,0.00018628,0.
 00001631,-0.00006418,-0.00017542,-0.00008819,-0.00003740,-0.00025415,-
 0.00530419,-0.00410559,0.00177806,0.00650902,-0.00124204,-0.00410809,0
 .02291747,-0.01224143,0.00513083,-0.02690016,-0.00294594,-0.08750039,-
 0.03620993,0.01742781,-0.00451611,0.00169686,-0.00052979,-0.00004815,-
 0.00224307,0.00137184,-0.00239019,-0.00002047,0.00035940,-0.00003192,-
 0.00205969,0.00005039,-0.00135243,0.00015267,-0.00002279,0.00062914,0.
 00420355,0.00197435,-0.00379517,-0.00037478,-0.00061387,0.00291226,0.0
 0010181,0.00034050,-0.00206314,0.00047926,0.00125336,0.00311383,0.1755
 2191,0.17827225,0.45236368,0.00011532,0.00082916,0.00043184,-0.0002220
 1,-0.00011278,-0.00065785,0.00008195,0.00000247,0.00009613,0.00000599,
 -0.00002985,-0.00010439,0.00004665,0.00003938,-0.00023309,-0.00432651,
 -0.00221632,0.00305960,0.00276623,-0.00032158,-0.00265551,-0.00029413,
 -0.00188752,-0.00059380,-0.02432200,-0.01364469,-0.03725393,-0.0059817
 0,0.00401842,0.00088903,-0.00037996,0.00034187,0.00077347,0.00043830,-
 0.00010065,-0.00052624,0.00012135,-0.00013414,-0.00003336,0.00029033,-
 0.00016090,0.00042573,0.00005314,0.00001484,-0.00007941,0.00065782,0.0
 0032747,-0.00004931,0.00025741,0.00063359,0.00047248,-0.00007523,-0.00
 007786,-0.00057518,0.00181026,0.00045943,-0.00008571,-0.10694883,-0.04
 576046,-0.13587022,0.13589072,-0.00043616,-0.00095770,0.00001917,0.000
 16124,-0.00004199,-0.00009191,-0.00008094,0.00001296,-0.00002794,-0.00
 004779,-0.00003056,0.00005183,-0.00025406,-0.00015873,0.00037767,0.002
 39570,0.00358971,0.00146610,-0.00333925,-0.00216944,0.00104075,-0.0005
 6119,0.00106817,-0.00116923,0.01153374,0.00499221,0.01652747,0.0041759
 2,-0.00226416,0.00060367,0.00036313,0.00042541,-0.00008495,-0.00009283
 ,-0.00012373,0.00010142,-0.00007375,-0.00010538,0.00001962,-0.00004739
 ,-0.00014771,0.00003458,-0.00001080,0.00003378,0.00000404,0.00033080,-
 0.00020667,-0.00035170,0.00065252,-0.00072758,0.00012958,-0.00012220,-
 0.00002334,-0.00023551,0.00085760,0.00048609,0.00124468,-0.07385604,-0
 .09112921,-0.17744744,0.05816333,0.08696840,-0.00004029,-0.00137764,-0
 .00040755,-0.00006673,0.00020859,0.00015198,-0.00001608,-0.00006577,-0
 .00012520,-0.00017470,0.00006837,0.00013227,-0.00009389,0.00000936,0.0
 0042159,0.00732275,0.00386916,0.00042414,-0.00516342,-0.00116600,-0.00
 181060,0.00050954,-0.00006948,0.00161269,-0.00276618,-0.00141511,-0.00
 377180,-0.00083317,0.00080946,0.00026818,-0.00027181,-0.00036726,-0.00
 028096,-0.00031025,-0.00000649,0.00001005,-0.00003324,0.00025576,-0.00
 010060,0.00008768,0.00022016,0.00014036,-0.00001342,-0.00002927,-0.000
 01445,0.00013514,-0.00023300,-0.00094890,0.00023794,0.00003733,-0.0012
 2208,-0.00038091,-0.00023853,0.00046803,0.00196824,-0.00149677,0.00039
 322,-0.17402940,-0.15611079,-0.35637764,0.17337685,0.15687725,0.360974
 41,-0.00006883,0.00009822,-0.00001987,0.00002361,-0.00001591,0.0000070
 3,-0.00001160,0.00001264,0.00000049,0.00001797,-0.00000446,0.00000419,
 0.00001026,-0.00000258,-0.00001488,-0.00014862,-0.00042142,-0.00030062
 ,0.00036447,0.00012246,-0.00006788,-0.00020533,0.00017221,0.00083019,-
 0.01106238,0.00700194,0.00033391,-0.21580558,0.10704440,-0.02634647,-0
 .02253763,0.01224638,-0.00295989,-0.00176829,-0.00117335,0.00350522,0.
 00028658,-0.00051911,-0.00003841,0.00246115,-0.00054711,-0.00049659,0.
 00033751,-0.00021311,-0.00035867,0.00073266,-0.00011072,-0.00012378,0.
 00024917,-0.00025344,-0.00003280,-0.00013385,-0.00006341,0.00007659,-0
 .00006642,-0.00061727,-0.00028200,-0.00017717,-0.00134819,-0.00320882,
 -0.00048439,0.00069783,0.00008914,0.23290137,0.00007406,-0.00004165,-0
 .00001911,-0.00001850,0.00002747,0.00002033,0.00001064,-0.00000663,-0.
 00000191,-0.00001291,0.00000024,-0.00000866,-0.00001794,0.00001710,-0.
 00001873,-0.00023932,0.00007390,0.00028366,0.00006468,-0.00004731,-0.0
 0007059,0.00066101,-0.00118279,-0.00033420,-0.00334699,0.00276521,-0.0
 0048065,0.10790330,-0.11141495,0.01626871,-0.00510926,0.00501331,-0.00
 000715,-0.00110838,0.00062130,0.00160458,0.00027851,0.00073620,-0.0008
 9958,0.00051735,0.00018085,-0.00038023,-0.00023938,-0.00002488,-0.0001
 4297,-0.00036420,0.00032719,0.00011081,-0.00014266,0.00088248,0.001025
 93,0.00060149,-0.00023948,-0.00193787,-0.00056455,0.00086024,0.0003154
 2,-0.00123232,0.00110640,-0.00158167,-0.00027197,0.00024875,-0.0002434
 7,-0.11462911,0.14365262,-0.00005317,0.00018215,0.00001124,0.00001922,
 -0.00001527,0.00005229,-0.00000804,0.00001109,0.00000421,0.00000943,-0
 .00001519,0.00000197,0.00001832,0.00000752,-0.00003029,-0.00016586,-0.
 00060156,0.00004043,0.00034834,0.00014890,-0.00000889,-0.00042478,0.00
 076998,0.00099333,-0.02447271,0.01566371,-0.00158396,-0.02594018,0.017
 46373,-0.05939445,0.02424910,-0.01254915,0.00203885,0.00283492,0.00050
 334,-0.00400688,-0.00082998,0.00006045,0.00086896,-0.00153889,0.000318
 07,0.00241847,-0.00018200,0.00023506,0.00048191,0.00061909,-0.00016773
 ,-0.00062532,0.00022326,-0.00020656,-0.00015344,-0.00024985,-0.0000061
 2,0.00000865,0.00002927,-0.00047336,0.00106299,-0.00298560,-0.00192080
 ,-0.00635449,-0.00154152,0.00108928,-0.00012686,0.02740445,-0.01742872
 ,0.05950550,-0.00010457,0.00000689,-0.00012899,0.00010426,0.00005775,0
 .00004188,-0.00002966,0.00000686,-0.00001778,0.00006671,-0.00003152,-0
 .00002875,-0.00002204,0.00003897,-0.00004146,-0.00065225,-0.00054148,-
 0.00023331,0.00076262,0.00049288,-0.00028919,-0.00136235,-0.00046199,0
 .00151942,-0.00368065,-0.01550019,-0.00212143,-0.07189032,-0.02626479,
 0.00592885,-0.00893777,-0.03574429,0.00099841,0.00323038,0.00016884,-0
 .00251534,-0.00255339,-0.00220748,0.00618024,0.00258374,-0.00089724,0.
 00000808,0.00040959,0.00036831,-0.00075480,0.00026477,-0.00030012,-0.0
 0030633,0.00363330,0.00165894,0.00003000,-0.00251494,-0.00121091,0.000
 04605,-0.00008093,-0.00040720,-0.00198138,0.00146832,-0.00022936,-0.00
 007467,0.00050227,-0.00046925,0.00046618,0.01475241,0.01640252,0.00187
 719,0.07958698,0.00000543,-0.00013015,-0.00014134,0.00000992,0.0001886
 0,-0.00022087,0.00002268,-0.00005394,-0.00002064,0.00001715,-0.0000525
 0,-0.00004805,-0.00004212,0.00007896,-0.00015013,-0.00051364,-0.000263
 83,0.00032674,0.00069381,0.00066490,-0.00057591,-0.00166450,-0.0034020
 2,0.00275738,-0.00451337,-0.01992134,-0.00568399,-0.02670157,-0.191318
 17,0.02350792,-0.01510192,-0.03462861,0.00221386,-0.00021944,0.0019677
 7,0.00003263,-0.00263076,0.00091961,0.00417144,0.00062286,0.00362607,-
 0.00030367,0.00030334,-0.00036927,-0.00090705,-0.00021551,0.00043123,-
 0.00001101,0.00149236,0.00722985,0.00101029,-0.00193124,-0.00560338,-0
 .00212343,-0.00096886,0.00149161,-0.00155708,-0.00184289,0.00345231,-0
 .00157462,-0.00009381,0.00022843,0.00045073,-0.00786287,-0.04293557,-0
 .00262531,0.08373110,0.33364431,0.00017763,0.00064471,0.00048476,-0.00
 018430,-0.00039983,-0.00079139,0.00001586,0.00001362,0.00016401,-0.000
 04129,0.00001449,-0.00000328,0.00005675,-0.00026322,0.00016875,-0.0001
 3486,-0.00046991,0.00182386,-0.00070512,-0.00002083,-0.00133998,0.0011
 1381,0.00498480,0.00257033,-0.00736731,-0.04093573,-0.00158696,-0.0101
 6787,-0.02222357,-0.09797176,0.00541779,0.02468681,-0.00256767,-0.0012
 6643,-0.00036992,0.00139715,0.00382341,0.00136165,-0.00357476,0.004333
 43,0.00706645,-0.00323519,0.00054321,0.00218200,0.00110460,0.00040693,
 -0.00071745,-0.00001145,0.00033472,-0.00078499,-0.01927886,-0.00018303
 ,-0.00300643,-0.00335867,-0.00343956,-0.00158121,-0.00673266,-0.000844
 15,0.00117524,0.00207968,0.00073247,-0.00018587,0.00023788,0.00207818,
 0.00201917,0.00479255,0.05623896,0.07674796,0.60399488,0.00005699,-0.0
 0005949,0.00003380,-0.00003380,0.00002365,0.00001660,0.00001853,-0.000
 00403,-0.00000210,-0.00001744,0.00001121,-0.00000150,0.00000878,0.0000
 2613,-0.00001336,-0.00012730,-0.00001714,-0.00005376,-0.00001509,0.000
 05342,-0.00003868,-0.00009766,-0.00061243,0.00018385,-0.00052311,-0.00
 354784,0.00041020,-0.00154558,-0.00309070,-0.01283413,-0.00075689,-0.0
 0370092,-0.00287182,-0.00086513,-0.00021694,0.00014508,0.00030858,0.00
 078200,-0.00030841,-0.00104936,0.00368161,-0.00058595,-0.00039841,-0.0
 0019216,0.00063363,-0.00004376,0.00006223,-0.00005212,0.00055353,0.000
 10385,0.00166725,-0.00076511,0.00107788,-0.00163424,-0.00013345,-0.000
 25421,-0.00083870,-0.00017831,0.00028569,0.00027885,-0.00000297,0.0000
 5984,0.00000002,0.00033295,0.00078390,0.00075997,-0.01553647,-0.022596
 14,-0.05093921,0.02081049,0.00001629,-0.00008275,-0.00005224,0.0000320
 1,0.00004960,0.00015516,-0.00000187,0.00000994,-0.00002276,0.00001676,
 0.00000097,-0.00001140,-0.00000583,0.00004770,-0.00003524,-0.00033922,
 -0.00015497,-0.00032408,0.00022120,0.00020543,0.00003625,-0.00013353,-
 0.00113883,0.00054607,-0.00054715,-0.00768321,0.00105924,-0.00885444,-
 0.01413257,-0.04278202,-0.00347100,-0.00154165,-0.00311458,0.00020818,
 0.00010859,0.00044777,0.00056058,0.00038176,-0.00008723,0.00187231,-0.
 00078276,-0.00146805,0.00101379,0.00210641,0.00046137,0.00001264,0.000
 13708,-0.00006353,-0.00021063,0.00084572,0.00353195,0.00127103,0.00124
 495,-0.00421052,-0.00077408,-0.00016256,-0.00174929,0.00007111,0.00037
 654,0.00044495,-0.00001743,0.00003231,0.00001339,0.00038597,-0.0006200
 2,-0.00044350,-0.01866726,-0.05524486,-0.04993795,0.02734059,0.0759971
 6,-0.00002055,-0.00001848,-0.00005266,0.00002938,0.00002605,0.00015058
 ,-0.00000481,-0.00000115,-0.00001982,0.00001394,0.00000204,0.00000478,
 0.00000242,-0.00000295,-0.00000145,-0.00013782,-0.00017279,-0.00029022
 ,0.00009666,0.00010219,0.00018629,0.00010963,0.00053691,0.00001313,0.0
 0091556,-0.00047908,0.00055506,-0.00338455,-0.00539848,-0.00195797,0.0
 0301360,0.00431257,0.00447387,-0.00050856,-0.00037662,-0.00047776,-0.0
 0045590,-0.00036783,-0.00170017,-0.00112377,-0.00157712,-0.00146381,-0
 .00018102,-0.00090954,-0.00061029,0.00006724,-0.00006322,-0.00006091,0
 .00027913,0.00034063,0.00031324,-0.00043795,-0.00077123,-0.00138439,0.
 00004850,0.00043097,0.00007262,0.00055277,0.00014235,0.00030021,0.0000
 0193,0.00000745,-0.00004815,-0.00007870,0.00190689,0.00000321,-0.06484
 184,-0.09527582,-0.47836582,0.06604471,0.09760625,0.48036042\\-0.00000
 618,-0.00002362,-0.00001737,0.00000662,0.00001036,0.00000971,-0.000001
 84,0.00000098,-0.00000030,-0.00000155,0.00000867,0.00000310,-0.0000014
 9,0.00000664,0.00000318,0.00001083,0.00003057,0.00000161,0.00000082,-0
 .00000817,0.00000008,0.00000815,-0.00003447,-0.00000158,-0.00005305,0.
 00002376,-0.00000731,0.00001020,0.00002204,0.00000703,0.00001265,-0.00
 000982,0.00001059,-0.00000139,-0.00000314,-0.00000250,-0.00000139,-0.0
 0000458,-0.00000086,-0.00000818,0.00000583,-0.00000967,0.00000145,-0.0
 0000580,0.00000452,-0.00000515,0.00000984,0.00000123,0.00000476,0.0000
 1630,-0.00000515,-0.00000548,0.00000130,0.00000089,0.00000890,-0.00001
 195,0.00000100,0.00003206,-0.00001375,0.00000783,-0.00000645,-0.000004
 82,-0.00000303,0.00000190,-0.00000151,0.00000075,-0.00000221,-0.000017
 36,-0.00001025,-0.00000399,0.00000269,0.00000649\\\@


 IF YOU'RE NOT PART OF THE SOLUTION,
 THEN YOU'RE PART OF THE PRECIPITATE.
 Job cpu time:  0 days  0 hours 25 minutes 18.7 seconds.
 File lengths (MBytes):  RWF=    219 Int=      0 D2E=      0 Chk=      7 Scr=      1
 Normal termination of Gaussian 09 at Mon Jan 22 22:27:30 2018.
