 Entering Gaussian System, Link 0=g09
 Input=tert-butylamine.inp
 Output=tert-butylamine.log
 Initial command:
 /usr/local/g09/l1.exe /home/g09scr/Gau-30490.inp -scrdir=/home/g09scr/
 Entering Link 1 = /usr/local/g09/l1.exe PID=     30492.
  
 Copyright (c) 1988,1990,1992,1993,1995,1998,2003,2009,2010,
            Gaussian, Inc.  All Rights Reserved.
  
 This is part of the Gaussian(R) 09 program.  It is based on
 the Gaussian(R) 03 system (copyright 2003, Gaussian, Inc.),
 the Gaussian(R) 98 system (copyright 1998, Gaussian, Inc.),
 the Gaussian(R) 94 system (copyright 1995, Gaussian, Inc.),
 the Gaussian 92(TM) system (copyright 1992, Gaussian, Inc.),
 the Gaussian 90(TM) system (copyright 1990, Gaussian, Inc.),
 the Gaussian 88(TM) system (copyright 1988, Gaussian, Inc.),
 the Gaussian 86(TM) system (copyright 1986, Carnegie Mellon
 University), and the Gaussian 82(TM) system (copyright 1983,
 Carnegie Mellon University). Gaussian is a federally registered
 trademark of Gaussian, Inc.
  
 This software contains proprietary and confidential information,
 including trade secrets, belonging to Gaussian, Inc.
  
 This software is provided under written license and may be
 used, copied, transmitted, or stored only in accord with that
 written license.
  
 The following legend is applicable only to US Government
 contracts under FAR:
  
                    RESTRICTED RIGHTS LEGEND
  
 Use, reproduction and disclosure by the US Government is
 subject to restrictions as set forth in subparagraphs (a)
 and (c) of the Commercial Computer Software - Restricted
 Rights clause in FAR 52.227-19.
  
 Gaussian, Inc.
 340 Quinnipiac St., Bldg. 40, Wallingford CT 06492
  
  
 ---------------------------------------------------------------
 Warning -- This program may not be used in any manner that
 competes with the business of Gaussian, Inc. or will provide
 assistance to any competitor of Gaussian, Inc.  The licensee
 of this program is prohibited from giving any competitor of
 Gaussian, Inc. access to this program.  By using this program,
 the user acknowledges that Gaussian, Inc. is engaged in the
 business of creating and licensing software in the field of
 computational chemistry and represents and warrants to the
 licensee that it is not a competitor of Gaussian, Inc. and that
 it will not use this program in any manner prohibited above.
 ---------------------------------------------------------------
  

 Cite this work as:
 Gaussian 09, Revision B.01,
 M. J. Frisch, G. W. Trucks, H. B. Schlegel, G. E. Scuseria, 
 M. A. Robb, J. R. Cheeseman, G. Scalmani, V. Barone, B. Mennucci, 
 G. A. Petersson, H. Nakatsuji, M. Caricato, X. Li, H. P. Hratchian, 
 A. F. Izmaylov, J. Bloino, G. Zheng, J. L. Sonnenberg, M. Hada, 
 M. Ehara, K. Toyota, R. Fukuda, J. Hasegawa, M. Ishida, T. Nakajima, 
 Y. Honda, O. Kitao, H. Nakai, T. Vreven, J. A. Montgomery, Jr., 
 J. E. Peralta, F. Ogliaro, M. Bearpark, J. J. Heyd, E. Brothers, 
 K. N. Kudin, V. N. Staroverov, T. Keith, R. Kobayashi, J. Normand, 
 K. Raghavachari, A. Rendell, J. C. Burant, S. S. Iyengar, J. Tomasi, 
 M. Cossi, N. Rega, J. M. Millam, M. Klene, J. E. Knox, J. B. Cross, 
 V. Bakken, C. Adamo, J. Jaramillo, R. Gomperts, R. E. Stratmann, 
 O. Yazyev, A. J. Austin, R. Cammi, C. Pomelli, J. W. Ochterski, 
 R. L. Martin, K. Morokuma, V. G. Zakrzewski, G. A. Voth, 
 P. Salvador, J. J. Dannenberg, S. Dapprich, A. D. Daniels, 
 O. Farkas, J. B. Foresman, J. V. Ortiz, J. Cioslowski, 
 and D. J. Fox, Gaussian, Inc., Wallingford CT, 2010.
 
 ******************************************
 Gaussian 09:  EM64L-G09RevB.01 12-Aug-2010
                 4-Jan-2018 
 ******************************************
 %nproc=4
 Will use up to    4 processors via shared memory.
 %mem=60gb
 -----------------------
 #B3LYP/6-31G* fopt test
 -----------------------
 1/14=-1,18=20,19=15,26=3,38=1/1,3;
 2/9=110,12=2,14=103,17=6,18=5,40=1/2;
 3/5=1,6=6,7=1,11=2,16=1,25=1,30=1,71=1,74=-5/1,2,3;
 4//1;
 5/5=2,38=5/2;
 6/7=2,8=2,9=2,10=2,28=1/1;
 7//1,2,3,16;
 1/14=-1,18=20,19=15/3(2);
 2/9=110/2;
 99//99;
 2/9=110/2;
 3/5=1,6=6,7=1,11=2,16=1,25=1,30=1,71=1,74=-5/1,2,3;
 4/5=5,16=3/1;
 5/5=2,38=5/2;
 7//1,2,3,16;
 1/14=-1,18=20,19=15/3(-5);
 2/9=110/2;
 6/7=2,8=2,9=2,10=2,19=2,28=1/1;
 99/9=1/99;
 -----------------------------------
 NeoConformation/tert-butylamine.xyz
 -----------------------------------
 Symbolic Z-matrix:
 Charge =  0 Multiplicity = 1
 C                    -0.00925   0.10916   0.10184 
 C                     1.22767  -0.4097   -0.64234 
 C                    -0.63115  -1.0354    0.90574 
 C                    -1.02795   0.62998  -0.91501 
 N                     0.33417   1.22067   1.04363 
 H                     1.70333   0.37767  -1.24301 
 H                     0.9602   -1.22415  -1.32859 
 H                     1.98517  -0.80356   0.04911 
 H                    -1.52267  -0.70611   1.45593 
 H                     0.07447  -1.45355   1.63671 
 H                    -0.93796  -1.8553    0.24248 
 H                    -1.93155   1.01381  -0.42293 
 H                    -1.34043  -0.17109  -1.59834 
 H                    -0.61494   1.44117  -1.5302 
 H                     0.73646   1.97587   0.52903 
 H                     0.99444   0.89054   1.71596 
 

 GradGradGradGradGradGradGradGradGradGradGradGradGradGradGradGradGradGrad
 Berny optimization.
 Initialization pass.
                           ----------------------------
                           !    Initial Parameters    !
                           ! (Angstroms and Degrees)  !
 --------------------------                            --------------------------
 ! Name  Definition              Value          Derivative Info.                !
 --------------------------------------------------------------------------------
 ! R1    R(1,2)                  1.5339         estimate D2E/DX2                !
 ! R2    R(1,3)                  1.5307         estimate D2E/DX2                !
 ! R3    R(1,4)                  1.5307         estimate D2E/DX2                !
 ! R4    R(1,5)                  1.4968         estimate D2E/DX2                !
 ! R5    R(2,6)                  1.0986         estimate D2E/DX2                !
 ! R6    R(2,7)                  1.0981         estimate D2E/DX2                !
 ! R7    R(2,8)                  1.0987         estimate D2E/DX2                !
 ! R8    R(3,9)                  1.0982         estimate D2E/DX2                !
 ! R9    R(3,10)                 1.0987         estimate D2E/DX2                !
 ! R10   R(3,11)                 1.0983         estimate D2E/DX2                !
 ! R11   R(4,12)                 1.0982         estimate D2E/DX2                !
 ! R12   R(4,13)                 1.0983         estimate D2E/DX2                !
 ! R13   R(4,14)                 1.0987         estimate D2E/DX2                !
 ! R14   R(5,15)                 0.9985         estimate D2E/DX2                !
 ! R15   R(5,16)                 0.9985         estimate D2E/DX2                !
 ! A1    A(2,1,3)              109.2372         estimate D2E/DX2                !
 ! A2    A(2,1,4)              109.2359         estimate D2E/DX2                !
 ! A3    A(2,1,5)              111.8038         estimate D2E/DX2                !
 ! A4    A(3,1,4)              109.4459         estimate D2E/DX2                !
 ! A5    A(3,1,5)              108.5442         estimate D2E/DX2                !
 ! A6    A(4,1,5)              108.5429         estimate D2E/DX2                !
 ! A7    A(1,2,6)              111.8358         estimate D2E/DX2                !
 ! A8    A(1,2,7)              110.9563         estimate D2E/DX2                !
 ! A9    A(1,2,8)              111.8332         estimate D2E/DX2                !
 ! A10   A(6,2,7)              107.1773         estimate D2E/DX2                !
 ! A11   A(6,2,8)              107.6083         estimate D2E/DX2                !
 ! A12   A(7,2,8)              107.1795         estimate D2E/DX2                !
 ! A13   A(1,3,9)              111.6383         estimate D2E/DX2                !
 ! A14   A(1,3,10)             111.905          estimate D2E/DX2                !
 ! A15   A(1,3,11)             110.7649         estimate D2E/DX2                !
 ! A16   A(9,3,10)             107.5892         estimate D2E/DX2                !
 ! A17   A(9,3,11)             107.4348         estimate D2E/DX2                !
 ! A18   A(10,3,11)            107.282          estimate D2E/DX2                !
 ! A19   A(1,4,12)             111.6454         estimate D2E/DX2                !
 ! A20   A(1,4,13)             110.762          estimate D2E/DX2                !
 ! A21   A(1,4,14)             111.9019         estimate D2E/DX2                !
 ! A22   A(12,4,13)            107.4343         estimate D2E/DX2                !
 ! A23   A(12,4,14)            107.5874         estimate D2E/DX2                !
 ! A24   A(13,4,14)            107.2832         estimate D2E/DX2                !
 ! A25   A(1,5,15)             109.2578         estimate D2E/DX2                !
 ! A26   A(1,5,16)             109.2611         estimate D2E/DX2                !
 ! A27   A(15,5,16)            109.3098         estimate D2E/DX2                !
 ! D1    D(3,1,2,6)            179.4392         estimate D2E/DX2                !
 ! D2    D(3,1,2,7)             59.8252         estimate D2E/DX2                !
 ! D3    D(3,1,2,8)            -59.7898         estimate D2E/DX2                !
 ! D4    D(4,1,2,6)             59.7548         estimate D2E/DX2                !
 ! D5    D(4,1,2,7)            -59.8592         estimate D2E/DX2                !
 ! D6    D(4,1,2,8)           -179.4742         estimate D2E/DX2                !
 ! D7    D(5,1,2,6)            -60.4018         estimate D2E/DX2                !
 ! D8    D(5,1,2,7)            179.9842         estimate D2E/DX2                !
 ! D9    D(5,1,2,8)             60.3692         estimate D2E/DX2                !
 ! D10   D(2,1,3,9)            179.9932         estimate D2E/DX2                !
 ! D11   D(2,1,3,10)            59.3354         estimate D2E/DX2                !
 ! D12   D(2,1,3,11)           -60.3276         estimate D2E/DX2                !
 ! D13   D(4,1,3,9)            -60.452          estimate D2E/DX2                !
 ! D14   D(4,1,3,10)           178.8902         estimate D2E/DX2                !
 ! D15   D(4,1,3,11)            59.2272         estimate D2E/DX2                !
 ! D16   D(5,1,3,9)             57.8525         estimate D2E/DX2                !
 ! D17   D(5,1,3,10)           -62.8054         estimate D2E/DX2                !
 ! D18   D(5,1,3,11)           177.5316         estimate D2E/DX2                !
 ! D19   D(2,1,4,12)          -179.9065         estimate D2E/DX2                !
 ! D20   D(2,1,4,13)            60.4122         estimate D2E/DX2                !
 ! D21   D(2,1,4,14)           -59.2482         estimate D2E/DX2                !
 ! D22   D(3,1,4,12)            60.5379         estimate D2E/DX2                !
 ! D23   D(3,1,4,13)           -59.1434         estimate D2E/DX2                !
 ! D24   D(3,1,4,14)          -178.8038         estimate D2E/DX2                !
 ! D25   D(5,1,4,12)           -57.7673         estimate D2E/DX2                !
 ! D26   D(5,1,4,13)          -177.4486         estimate D2E/DX2                !
 ! D27   D(5,1,4,14)            62.891          estimate D2E/DX2                !
 ! D28   D(2,1,5,15)            59.7482         estimate D2E/DX2                !
 ! D29   D(2,1,5,16)           -59.798          estimate D2E/DX2                !
 ! D30   D(3,1,5,15)          -179.6879         estimate D2E/DX2                !
 ! D31   D(3,1,5,16)            60.7658         estimate D2E/DX2                !
 ! D32   D(4,1,5,15)           -60.8132         estimate D2E/DX2                !
 ! D33   D(4,1,5,16)           179.6405         estimate D2E/DX2                !
 --------------------------------------------------------------------------------
 Trust Radius=3.00D-01 FncErr=1.00D-07 GrdErr=1.00D-06
 Number of steps in this run=     85 maximum allowed number of steps=    100.
 GradGradGradGradGradGradGradGradGradGradGradGradGradGradGradGradGradGrad

                          Input orientation:                          
 ---------------------------------------------------------------------
 Center     Atomic      Atomic             Coordinates (Angstroms)
 Number     Number       Type             X           Y           Z
 ---------------------------------------------------------------------
      1          6           0       -0.009250    0.109160    0.101840
      2          6           0        1.227670   -0.409700   -0.642340
      3          6           0       -0.631150   -1.035400    0.905740
      4          6           0       -1.027950    0.629980   -0.915010
      5          7           0        0.334170    1.220670    1.043630
      6          1           0        1.703330    0.377670   -1.243010
      7          1           0        0.960200   -1.224150   -1.328590
      8          1           0        1.985170   -0.803560    0.049110
      9          1           0       -1.522670   -0.706110    1.455930
     10          1           0        0.074470   -1.453550    1.636710
     11          1           0       -0.937960   -1.855300    0.242480
     12          1           0       -1.931550    1.013810   -0.422930
     13          1           0       -1.340430   -0.171090   -1.598340
     14          1           0       -0.614940    1.441170   -1.530200
     15          1           0        0.736460    1.975870    0.529030
     16          1           0        0.994440    0.890540    1.715960
 ---------------------------------------------------------------------
                    Distance matrix (angstroms):
                    1          2          3          4          5
     1  C    0.000000
     2  C    1.533946   0.000000
     3  C    1.530697   2.498652   0.000000
     4  C    1.530682   2.498621   2.499214   0.000000
     5  N    1.496783   2.509770   2.457785   2.457754   0.000000
     6  H    2.194003   1.098639   3.473282   2.762451   2.795348
     7  H    2.182585   1.098093   2.749591   2.749834   3.463594
     8  H    2.193980   1.098651   2.762733   3.473249   2.795063
     9  H    2.188302   3.472026   1.098157   2.766088   2.707458
    10  H    2.192008   2.759268   1.098666   3.473860   2.751480
    11  H    2.177472   2.750022   1.098309   2.743082   3.423704
    12  H    2.188381   3.472059   2.766887   1.098163   2.706857
    13  H    2.177428   2.750638   2.742358   1.098315   3.423636
    14  H    2.191955   2.758483   3.473826   1.098665   2.752096
    15  H    2.055038   2.702654   3.328666   2.647605   0.998488
    16  H    2.055075   2.703072   2.647309   3.328657   0.998484
                    6          7          8          9         10
     6  H    0.000000
     7  H    1.767878   0.000000
     8  H    1.773221   1.767913   0.000000
     9  H    4.343493   3.766505   3.780685   0.000000
    10  H    3.781447   3.103248   2.567827   1.772626   0.000000
    11  H    3.764206   2.543545   3.112593   1.770589   1.769264
    12  H    3.780153   3.767082   4.343541   2.579811   3.788680
    13  H    3.113177   2.544523   3.764801   3.106127   3.756620
    14  H    2.566688   3.102522   3.780688   3.788371   4.345573
    15  H    2.574725   3.706877   3.084612   3.627096   3.664165
    16  H    3.085622   3.707070   2.574861   2.992115   2.519401
                   11         12         13         14         15
    11  H    0.000000
    12  H    3.108341   0.000000
    13  H    2.527284   1.770593   0.000000
    14  H    3.756787   1.772610   1.769283   0.000000
    15  H    4.190902   2.991666   3.667235   2.520439   0.000000
    16  H    3.666736   3.626495   4.190854   3.664813   1.628895
                   16
    16  H    0.000000
 Stoichiometry    C4H11N
 Framework group  C1[X(C4H11N)]
 Deg. of freedom    42
 Full point group                 C1      NOp   1
 Largest Abelian subgroup         C1      NOp   1
 Largest concise Abelian subgroup C1      NOp   1
                         Standard orientation:                         
 ---------------------------------------------------------------------
 Center     Atomic      Atomic             Coordinates (Angstroms)
 Number     Number       Type             X           Y           Z
 ---------------------------------------------------------------------
      1          6           0        0.000005   -0.000253    0.026568
      2          6           0       -0.001303    1.091354   -1.051107
      3          6           0        1.250358   -0.868106   -0.136163
      4          6           0       -1.248855   -0.870358   -0.135461
      5          7           0       -0.000152    0.580453    1.406112
      6          1           0       -0.888622    1.735207   -0.979498
      7          1           0       -0.000890    0.650404   -2.056776
      8          1           0        0.884598    1.737186   -0.979588
      9          1           0        1.291145   -1.665034    0.618285
     10          1           0        2.173056   -0.278485   -0.046485
     11          1           0        1.264948   -1.348722   -1.123623
     12          1           0       -1.288665   -1.666475    0.619902
     13          1           0       -1.262334   -1.352154   -1.122369
     14          1           0       -2.172516   -0.282099   -0.046771
     15          1           0       -0.814893    1.145158    1.525619
     16          1           0        0.814001    1.146025    1.525497
 ---------------------------------------------------------------------
 Rotational constants (GHZ):      4.5421826      4.5179517      4.4972340
 Standard basis: 6-31G(d) (6D, 7F)
 There are    97 symmetry adapted basis functions of A   symmetry.
 Integral buffers will be    131072 words long.
 Raffenetti 2 integral format.
 Two-electron integral symmetry is turned on.
    97 basis functions,   184 primitive gaussians,    97 cartesian basis functions
    21 alpha electrons       21 beta electrons
       nuclear repulsion energy       199.1069648662 Hartrees.
 NAtoms=   16 NActive=   16 NUniq=   16 SFac= 1.00D+00 NAtFMM=   50 NAOKFM=F Big=F
 One-electron integrals computed using PRISM.
 NBasis=    97 RedAO= T  NBF=    97
 NBsUse=    97 1.00D-06 NBFU=    97
 Harris functional with IExCor=  402 diagonalized for initial guess.
 ExpMin= 1.61D-01 ExpMax= 4.17D+03 ExpMxC= 6.27D+02 IAcc=1 IRadAn=         1 AccDes= 0.00D+00
 HarFok:  IExCor=  402 AccDes= 0.00D+00 IRadAn=         1 IDoV= 1
 ScaDFX=  1.000000  1.000000  1.000000  1.000000
 FoFCou: FMM=F IPFlag=           0 FMFlag=      100000 FMFlg1=           0
         NFxFlg=           0 DoJE=T BraDBF=F KetDBF=T FulRan=T
         Omega=  0.000000  0.000000  1.000000  0.000000  0.000000 ICntrl=     500 IOpCl=  0
         NMat0=    1 NMatS0=    1 NMatT0=    0 NMatD0=    1 NMtDS0=    0 NMtDT0=    0
         I1Cent=           4 NGrid=           0.
 Petite list used in FoFCou.
 Initial guess orbital symmetries:
       Occupied  (A) (A) (A) (A) (A) (A) (A) (A) (A) (A) (A) (A)
                 (A) (A) (A) (A) (A) (A) (A) (A) (A)
       Virtual   (A) (A) (A) (A) (A) (A) (A) (A) (A) (A) (A) (A)
                 (A) (A) (A) (A) (A) (A) (A) (A) (A) (A) (A) (A)
                 (A) (A) (A) (A) (A) (A) (A) (A) (A) (A) (A) (A)
                 (A) (A) (A) (A) (A) (A) (A) (A) (A) (A) (A) (A)
                 (A) (A) (A) (A) (A) (A) (A) (A) (A) (A) (A) (A)
                 (A) (A) (A) (A) (A) (A) (A) (A) (A) (A) (A) (A)
                 (A) (A) (A) (A)
 The electronic state of the initial guess is 1-A.
 Requested convergence on RMS density matrix=1.00D-08 within 128 cycles.
 Requested convergence on MAX density matrix=1.00D-06.
 Requested convergence on             energy=1.00D-06.
 No special actions if energy rises.
 Keep R1 ints in memory in canonical form, NReq=12396098.
 Integral accuracy reduced to 1.0D-05 until final iterations.
 Initial convergence to 1.0D-05 achieved.  Increase integral accuracy.
 SCF Done:  E(RB3LYP) =  -213.801401874     A.U. after   13 cycles
             Convg  =    0.7428D-08             -V/T =  2.0099

 **********************************************************************

            Population analysis using the SCF density.

 **********************************************************************

 Orbital symmetries:
       Occupied  (A) (A) (A) (A) (A) (A) (A) (A) (A) (A) (A) (A)
                 (A) (A) (A) (A) (A) (A) (A) (A) (A)
       Virtual   (A) (A) (A) (A) (A) (A) (A) (A) (A) (A) (A) (A)
                 (A) (A) (A) (A) (A) (A) (A) (A) (A) (A) (A) (A)
                 (A) (A) (A) (A) (A) (A) (A) (A) (A) (A) (A) (A)
                 (A) (A) (A) (A) (A) (A) (A) (A) (A) (A) (A) (A)
                 (A) (A) (A) (A) (A) (A) (A) (A) (A) (A) (A) (A)
                 (A) (A) (A) (A) (A) (A) (A) (A) (A) (A) (A) (A)
                 (A) (A) (A) (A)
 The electronic state is 1-A.
 Alpha  occ. eigenvalues --  -14.29900 -10.21653 -10.16973 -10.16835 -10.16834
 Alpha  occ. eigenvalues --   -0.88058  -0.76074  -0.68081  -0.68066  -0.54477
 Alpha  occ. eigenvalues --   -0.48403  -0.45682  -0.43323  -0.41578  -0.38645
 Alpha  occ. eigenvalues --   -0.37224  -0.35902  -0.35100  -0.32998  -0.32448
 Alpha  occ. eigenvalues --   -0.22552
 Alpha virt. eigenvalues --    0.07043   0.12573   0.13458   0.14092   0.15839
 Alpha virt. eigenvalues --    0.16338   0.16961   0.18414   0.20050   0.21925
 Alpha virt. eigenvalues --    0.22320   0.22561   0.25590   0.25613   0.26199
 Alpha virt. eigenvalues --    0.51336   0.51410   0.54174   0.54836   0.56337
 Alpha virt. eigenvalues --    0.61896   0.67466   0.68629   0.69671   0.72574
 Alpha virt. eigenvalues --    0.74208   0.76982   0.86778   0.87272   0.89458
 Alpha virt. eigenvalues --    0.90699   0.91075   0.91200   0.92770   0.93707
 Alpha virt. eigenvalues --    0.95008   0.95043   0.97670   0.99096   0.99187
 Alpha virt. eigenvalues --    1.02114   1.02806   1.33386   1.40818   1.42673
 Alpha virt. eigenvalues --    1.50862   1.51883   1.70280   1.73080   1.73912
 Alpha virt. eigenvalues --    1.74334   1.86599   1.87323   1.88436   2.06430
 Alpha virt. eigenvalues --    2.08779   2.11011   2.15025   2.15717   2.20685
 Alpha virt. eigenvalues --    2.24753   2.25026   2.26134   2.26589   2.30165
 Alpha virt. eigenvalues --    2.41455   2.59164   2.64277   2.71753   2.72241
 Alpha virt. eigenvalues --    2.77350   3.80456   4.20268   4.30429   4.31351
 Alpha virt. eigenvalues --    4.64640
          Condensed to atoms (all electrons):
              1          2          3          4          5          6
     1  C    4.605470   0.387713   0.390914   0.390900   0.343115  -0.027922
     2  C    0.387713   5.216837  -0.075044  -0.075058  -0.076058   0.361395
     3  C    0.390914  -0.075044   5.152097  -0.057022  -0.063310   0.005954
     4  C    0.390900  -0.075058  -0.057022   5.152172  -0.063358  -0.005269
     5  N    0.343115  -0.076058  -0.063310  -0.063358   6.957786  -0.001536
     6  H   -0.027922   0.361395   0.005954  -0.005269  -0.001536   0.588719
     7  H   -0.024802   0.343088  -0.002139  -0.002127   0.005824  -0.028935
     8  H   -0.027930   0.361392  -0.005258   0.005955  -0.001535  -0.031669
     9  H   -0.025192   0.006265   0.364422  -0.006076   0.001501  -0.000200
    10  H   -0.027843  -0.006263   0.363877   0.005779  -0.003696  -0.000052
    11  H   -0.028384  -0.001546   0.363968  -0.005861   0.004393  -0.000040
    12  H   -0.025171   0.006265  -0.006064   0.364395   0.001505  -0.000083
    13  H   -0.028396  -0.001529  -0.005872   0.363961   0.004395  -0.000122
    14  H   -0.027853  -0.006279   0.005780   0.363884  -0.003683   0.004231
    15  H   -0.033686  -0.002223   0.007414  -0.005628   0.306289   0.004160
    16  H   -0.033675  -0.002218  -0.005642   0.007416   0.306280  -0.000192
              7          8          9         10         11         12
     1  C   -0.024802  -0.027930  -0.025192  -0.027843  -0.028384  -0.025171
     2  C    0.343088   0.361392   0.006265  -0.006263  -0.001546   0.006265
     3  C   -0.002139  -0.005258   0.364422   0.363877   0.363968  -0.006064
     4  C   -0.002127   0.005955  -0.006076   0.005779  -0.005861   0.364395
     5  N    0.005824  -0.001535   0.001501  -0.003696   0.004393   0.001505
     6  H   -0.028935  -0.031669  -0.000200  -0.000052  -0.000040  -0.000083
     7  H    0.598721  -0.028926  -0.000159   0.000146   0.001729  -0.000160
     8  H   -0.028926   0.588724  -0.000083   0.004220  -0.000122  -0.000200
     9  H   -0.000159  -0.000083   0.560372  -0.030484  -0.028687   0.004185
    10  H    0.000146   0.004220  -0.030484   0.590283  -0.031020  -0.000068
    11  H    0.001729  -0.000122  -0.028687  -0.031020   0.584638   0.000154
    12  H   -0.000160  -0.000200   0.004185  -0.000068   0.000154   0.560348
    13  H    0.001722  -0.000041   0.000155  -0.000031   0.003880  -0.028679
    14  H    0.000146  -0.000052  -0.000067  -0.000201  -0.000032  -0.030487
    15  H   -0.000028  -0.000192  -0.000123  -0.000099  -0.000249  -0.000385
    16  H   -0.000028   0.004160  -0.000385   0.004418  -0.000245  -0.000123
             13         14         15         16
     1  C   -0.028396  -0.027853  -0.033686  -0.033675
     2  C   -0.001529  -0.006279  -0.002223  -0.002218
     3  C   -0.005872   0.005780   0.007414  -0.005642
     4  C    0.363961   0.363884  -0.005628   0.007416
     5  N    0.004395  -0.003683   0.306289   0.306280
     6  H   -0.000122   0.004231   0.004160  -0.000192
     7  H    0.001722   0.000146  -0.000028  -0.000028
     8  H   -0.000041  -0.000052  -0.000192   0.004160
     9  H    0.000155  -0.000067  -0.000123  -0.000385
    10  H   -0.000031  -0.000201  -0.000099   0.004418
    11  H    0.003880  -0.000032  -0.000249  -0.000245
    12  H   -0.028679  -0.030487  -0.000385  -0.000123
    13  H    0.584657  -0.031020  -0.000246  -0.000249
    14  H   -0.031020   0.590297   0.004407  -0.000099
    15  H   -0.000246   0.004407   0.459331  -0.031228
    16  H   -0.000249  -0.000099  -0.031228   0.459327
 Mulliken atomic charges:
              1
     1  C    0.192742
     2  C   -0.436736
     3  C   -0.434075
     4  C   -0.434064
     5  N   -0.717911
     6  H    0.131561
     7  H    0.135929
     8  H    0.131557
     9  H    0.154557
    10  H    0.131034
    11  H    0.137423
    12  H    0.154568
    13  H    0.137416
    14  H    0.131030
    15  H    0.292484
    16  H    0.292485
 Sum of Mulliken atomic charges =   0.00000
 Mulliken charges with hydrogens summed into heavy atoms:
              1
     1  C    0.192742
     2  C   -0.037690
     3  C   -0.011061
     4  C   -0.011050
     5  N   -0.132942
 Sum of Mulliken charges with hydrogens summed into heavy atoms =   0.00000
 Electronic spatial extent (au):  <R**2>=            466.1447
 Charge=              0.0000 electrons
 Dipole moment (field-independent basis, Debye):
    X=             -0.0005    Y=              0.9340    Z=             -0.7931  Tot=              1.2253
 Quadrupole moment (field-independent basis, Debye-Ang):
   XX=            -32.6472   YY=            -32.3089   ZZ=            -36.5821
   XY=              0.0000   XZ=             -0.0019   YZ=              2.2410
 Traceless Quadrupole moment (field-independent basis, Debye-Ang):
   XX=              1.1989   YY=              1.5371   ZZ=             -2.7360
   XY=              0.0000   XZ=             -0.0019   YZ=              2.2410
 Octapole moment (field-independent basis, Debye-Ang**2):
  XXX=             -0.0060  YYY=              2.9251  ZZZ=             -3.5729  XYY=              0.0044
  XXY=              3.8495  XXZ=              3.7539  XZZ=             -0.0015  YZZ=              2.4886
  YYZ=              5.0838  XYZ=              0.0001
 Hexadecapole moment (field-independent basis, Debye-Ang**3):
 XXXX=           -216.6376 YYYY=           -210.7757 ZZZZ=           -211.3706 XXXY=             -0.0043
 XXXZ=             -0.0020 YYYX=              0.0042 YYYZ=              6.2800 ZZZX=             -0.0120
 ZZZY=             11.6196 XXYY=            -69.3335 XXZZ=            -67.1791 YYZZ=            -62.5576
 XXYZ=              3.2834 YYXZ=              0.0001 ZZXY=             -0.0012
 N-N= 1.991069648662D+02 E-N=-8.930599255685D+02  KE= 2.117129076549D+02
 Calling FoFJK, ICntrl=      2127 FMM=F ISym2X=0 I1Cent= 0 IOpClX= 0 NMat=1 NMatS=1 NMatT=0.
 ***** Axes restored to original set *****
 -------------------------------------------------------------------
 Center     Atomic                   Forces (Hartrees/Bohr)
 Number     Number              X              Y              Z
 -------------------------------------------------------------------
      1        6           0.003778528    0.007423316    0.005969383
      2        6           0.004810362   -0.003701069   -0.004416063
      3        6          -0.004673147   -0.003528366    0.004374694
      4        6          -0.006199043    0.002860893   -0.002635991
      5        7          -0.030232313   -0.017071594   -0.009043497
      6        1          -0.001030635    0.000522908    0.001031847
      7        1           0.000805033   -0.000184390   -0.000344627
      8        1          -0.001111409    0.000836720    0.000672980
      9        1           0.002225268    0.001567579   -0.000988405
     10        1           0.000536361    0.001050314   -0.000548592
     11        1           0.001432802    0.000915851    0.000308794
     12        1           0.002682037   -0.000329334    0.001078494
     13        1           0.001486563    0.000711295    0.000529969
     14        1           0.000853730   -0.000300012    0.000928215
     15        1           0.010402801    0.012658842   -0.007252884
     16        1           0.014233062   -0.003432952    0.010335684
 -------------------------------------------------------------------
 Cartesian Forces:  Max     0.030232313 RMS     0.006815449

 GradGradGradGradGradGradGradGradGradGradGradGradGradGradGradGradGradGrad
 Berny optimization.
 Internal  Forces:  Max     0.017507913 RMS     0.003417009
 Search for a local minimum.
 Step number   1 out of a maximum of   85
 All quantities printed in internal units (Hartrees-Bohrs-Radians)
 Mixed Optimization -- RFO/linear search
 Second derivative matrix not updated -- first step.
 ITU=  0
     Eigenvalues ---    0.00317   0.00360   0.00360   0.00412   0.04036
     Eigenvalues ---    0.04875   0.05084   0.05328   0.05374   0.05374
     Eigenvalues ---    0.05453   0.05504   0.05504   0.05557   0.14850
     Eigenvalues ---    0.15234   0.16000   0.16000   0.16000   0.16000
     Eigenvalues ---    0.16000   0.16000   0.16000   0.16000   0.16000
     Eigenvalues ---    0.16000   0.16000   0.29062   0.29359   0.29361
     Eigenvalues ---    0.32717   0.33830   0.33830   0.33832   0.33833
     Eigenvalues ---    0.33869   0.33870   0.33886   0.33887   0.33894
     Eigenvalues ---    0.47955   0.47956
 RFO step:  Lambda=-2.91335245D-03 EMin= 3.16905523D-03
 Linear search not attempted -- first point.
 Iteration  1 RMS(Cart)=  0.02244458 RMS(Int)=  0.00035111
 Iteration  2 RMS(Cart)=  0.00039529 RMS(Int)=  0.00011284
 Iteration  3 RMS(Cart)=  0.00000010 RMS(Int)=  0.00011284
 Variable       Old X    -DE/DX   Delta X   Delta X   Delta X     New X
                                 (Linear)    (Quad)   (Total)
    R1        2.89874   0.00514   0.00000   0.01751   0.01751   2.91624
    R2        2.89260   0.00184   0.00000   0.00621   0.00621   2.89881
    R3        2.89257   0.00185   0.00000   0.00624   0.00624   2.89881
    R4        2.82851  -0.01086   0.00000  -0.03291  -0.03291   2.79560
    R5        2.07613  -0.00064   0.00000  -0.00187  -0.00187   2.07426
    R6        2.07509   0.00016   0.00000   0.00046   0.00046   2.07556
    R7        2.07615  -0.00064   0.00000  -0.00189  -0.00189   2.07426
    R8        2.07522  -0.00183   0.00000  -0.00536  -0.00536   2.06986
    R9        2.07618  -0.00042   0.00000  -0.00123  -0.00123   2.07495
   R10        2.07550  -0.00127   0.00000  -0.00372  -0.00372   2.07178
   R11        2.07523  -0.00184   0.00000  -0.00538  -0.00538   2.06985
   R12        2.07552  -0.00127   0.00000  -0.00373  -0.00373   2.07179
   R13        2.07618  -0.00042   0.00000  -0.00123  -0.00123   2.07494
   R14        1.88687   0.01750   0.00000   0.03628   0.03628   1.92315
   R15        1.88686   0.01751   0.00000   0.03629   0.03629   1.92315
    A1        1.90655   0.00025   0.00000   0.01325   0.01308   1.91963
    A2        1.90653   0.00025   0.00000   0.01326   0.01309   1.91962
    A3        1.95134   0.00138   0.00000   0.00786   0.00805   1.95939
    A4        1.91019   0.00153   0.00000   0.01223   0.01173   1.92192
    A5        1.89445  -0.00170   0.00000  -0.02340  -0.02338   1.87107
    A6        1.89443  -0.00169   0.00000  -0.02334  -0.02333   1.87110
    A7        1.95190  -0.00195   0.00000  -0.01387  -0.01396   1.93794
    A8        1.93655   0.00212   0.00000   0.01681   0.01687   1.95342
    A9        1.95186  -0.00194   0.00000  -0.01381  -0.01390   1.93796
   A10        1.87060   0.00028   0.00000   0.00527   0.00532   1.87592
   A11        1.87812   0.00136   0.00000   0.00146   0.00123   1.87935
   A12        1.87064   0.00028   0.00000   0.00523   0.00529   1.87593
   A13        1.94846  -0.00247   0.00000  -0.01520  -0.01528   1.93318
   A14        1.95311  -0.00134   0.00000  -0.01098  -0.01107   1.94205
   A15        1.93321  -0.00005   0.00000   0.00250   0.00253   1.93574
   A16        1.87779   0.00150   0.00000   0.00414   0.00396   1.88175
   A17        1.87509   0.00191   0.00000   0.01690   0.01694   1.89203
   A18        1.87242   0.00072   0.00000   0.00449   0.00449   1.87692
   A19        1.94858  -0.00249   0.00000  -0.01538  -0.01546   1.93312
   A20        1.93316  -0.00003   0.00000   0.00258   0.00260   1.93576
   A21        1.95306  -0.00133   0.00000  -0.01090  -0.01099   1.94207
   A22        1.87508   0.00191   0.00000   0.01692   0.01695   1.89203
   A23        1.87775   0.00151   0.00000   0.00418   0.00401   1.88176
   A24        1.87245   0.00072   0.00000   0.00446   0.00447   1.87692
   A25        1.90691   0.00130   0.00000  -0.00313  -0.00325   1.90366
   A26        1.90697   0.00129   0.00000  -0.00320  -0.00332   1.90365
   A27        1.90782  -0.00324   0.00000  -0.04244  -0.04270   1.86511
    D1        3.13180   0.00158   0.00000   0.02451   0.02442  -3.12696
    D2        1.04415   0.00108   0.00000   0.01570   0.01568   1.05983
    D3       -1.04353   0.00058   0.00000   0.00688   0.00695  -1.03658
    D4        1.04292  -0.00058   0.00000  -0.00630  -0.00636   1.03655
    D5       -1.04474  -0.00108   0.00000  -0.01512  -0.01510  -1.05984
    D6       -3.13242  -0.00157   0.00000  -0.02393  -0.02384   3.12693
    D7       -1.05421   0.00050   0.00000   0.00907   0.00899  -1.04522
    D8        3.14132   0.00000   0.00000   0.00025   0.00025   3.14157
    D9        1.05364  -0.00050   0.00000  -0.00856  -0.00848   1.04516
   D10        3.14147  -0.00064   0.00000  -0.01130  -0.01131   3.13016
   D11        1.03560   0.00010   0.00000   0.00175   0.00163   1.03723
   D12       -1.05292   0.00010   0.00000   0.00167   0.00160  -1.05132
   D13       -1.05509   0.00072   0.00000   0.02023   0.02036  -1.03473
   D14        3.12222   0.00146   0.00000   0.03327   0.03330  -3.12766
   D15        1.03371   0.00147   0.00000   0.03320   0.03327   1.06698
   D16        1.00972  -0.00143   0.00000  -0.01452  -0.01447   0.99524
   D17       -1.09616  -0.00069   0.00000  -0.00147  -0.00153  -1.09769
   D18        3.09851  -0.00069   0.00000  -0.00155  -0.00156   3.09695
   D19       -3.13996   0.00064   0.00000   0.01063   0.01065  -3.12931
   D20        1.05439  -0.00010   0.00000  -0.00228  -0.00221   1.05219
   D21       -1.03408  -0.00010   0.00000  -0.00243  -0.00231  -1.03639
   D22        1.05659  -0.00073   0.00000  -0.02088  -0.02102   1.03557
   D23       -1.03225  -0.00147   0.00000  -0.03380  -0.03387  -1.06612
   D24       -3.12072  -0.00147   0.00000  -0.03395  -0.03398   3.12849
   D25       -1.00823   0.00143   0.00000   0.01389   0.01384  -0.99438
   D26       -3.09706   0.00069   0.00000   0.00098   0.00099  -3.09607
   D27        1.09765   0.00069   0.00000   0.00083   0.00089   1.09854
   D28        1.04280  -0.00120   0.00000  -0.02745  -0.02738   1.01542
   D29       -1.04367   0.00120   0.00000   0.02800   0.02793  -1.01574
   D30       -3.13615  -0.00115   0.00000  -0.02153  -0.02167   3.12537
   D31        1.06056   0.00125   0.00000   0.03393   0.03364   1.09420
   D32       -1.06139  -0.00125   0.00000  -0.03343  -0.03314  -1.09453
   D33        3.13532   0.00115   0.00000   0.02203   0.02217  -3.12570
         Item               Value     Threshold  Converged?
 Maximum Force            0.017508     0.000450     NO 
 RMS     Force            0.003417     0.000300     NO 
 Maximum Displacement     0.070853     0.001800     NO 
 RMS     Displacement     0.022314     0.001200     NO 
 Predicted change in Energy=-1.488509D-03
 GradGradGradGradGradGradGradGradGradGradGradGradGradGradGradGradGradGrad

                          Input orientation:                          
 ---------------------------------------------------------------------
 Center     Atomic      Atomic             Coordinates (Angstroms)
 Number     Number       Type             X           Y           Z
 ---------------------------------------------------------------------
      1          6           0       -0.013921    0.095595    0.090441
      2          6           0        1.238182   -0.417392   -0.651568
      3          6           0       -0.636284   -1.038534    0.914773
      4          6           0       -1.035551    0.637223   -0.917536
      5          7           0        0.301495    1.195716    1.027873
      6          1           0        1.706338    0.385233   -1.235918
      7          1           0        0.997694   -1.233804   -1.345818
      8          1           0        1.987757   -0.795759    0.055410
      9          1           0       -1.520233   -0.684977    1.456403
     10          1           0        0.075324   -1.431198    1.653057
     11          1           0       -0.936396   -1.872291    0.269217
     12          1           0       -1.925045    1.016460   -0.403045
     13          1           0       -1.348266   -0.146676   -1.617309
     14          1           0       -0.613420    1.460041   -1.509489
     15          1           0        0.731538    1.959813    0.511243
     16          1           0        0.990798    0.870560    1.702277
 ---------------------------------------------------------------------
                    Distance matrix (angstroms):
                    1          2          3          4          5
     1  C    0.000000
     2  C    1.543210   0.000000
     3  C    1.533985   2.520490   0.000000
     4  C    1.533983   2.520479   2.514942   0.000000
     5  N    1.479370   2.509985   2.425716   2.425742   0.000000
     6  H    2.191439   1.097652   3.484317   2.771790   2.784819
     7  H    2.203067   1.098338   2.796120   2.796114   3.467228
     8  H    2.191450   1.097653   2.771829   3.484315   2.784805
     9  H    2.178100   3.481954   1.095322   2.760202   2.653175
    10  H    2.186512   2.773327   1.098014   3.481430   2.709740
    11  H    2.180710   2.773692   1.096339   2.777746   3.394201
    12  H    2.178053   3.481910   2.760534   1.095317   2.652761
    13  H    2.180729   2.774105   2.777367   1.096344   3.394218
    14  H    2.186524   2.772944   3.481444   1.098013   2.710193
    15  H    2.051364   2.694424   3.320220   2.629307   1.017687
    16  H    2.051353   2.694551   2.629107   3.320234   1.017687
                    6          7          8          9         10
     6  H    0.000000
     7  H    1.770744   0.000000
     8  H    1.772418   1.770748   0.000000
     9  H    4.336439   3.807048   3.779028   0.000000
    10  H    3.782301   3.143721   2.571703   1.772378   0.000000
    11  H    3.787596   2.599367   3.123349   1.777636   1.770072
    12  H    3.778765   3.807218   4.336397   2.552706   3.770950
    13  H    3.123938   2.599823   3.787921   3.125227   3.791029
    14  H    2.571251   3.143132   3.782019   3.770932   4.339969
    15  H    2.545998   3.703877   3.062523   3.599822   3.637762
    16  H    3.062765   3.703955   2.546118   2.964022   2.477621
                   11         12         13         14         15
    11  H    0.000000
    12  H    3.126378   0.000000
    13  H    2.589665   1.777637   0.000000
    14  H    3.791114   1.772383   1.770074   0.000000
    15  H    4.186359   2.963658   3.646041   2.478315   0.000000
    16  H    3.645678   3.599418   4.186363   3.638193   1.634702
                   16
    16  H    0.000000
 Stoichiometry    C4H11N
 Framework group  C1[X(C4H11N)]
 Deg. of freedom    42
 Full point group                 C1      NOp   1
 Largest Abelian subgroup         C1      NOp   1
 Largest concise Abelian subgroup C1      NOp   1
                         Standard orientation:                         
 ---------------------------------------------------------------------
 Center     Atomic      Atomic             Coordinates (Angstroms)
 Number     Number       Type             X           Y           Z
 ---------------------------------------------------------------------
      1          6           0       -0.000004   -0.005739    0.014628
      2          6           0       -0.000590    1.367521   -0.689398
      3          6           0        1.257644   -0.793517   -0.373752
      4          6           0       -1.257298   -0.794320   -0.373258
      5          7           0        0.000271    0.120054    1.488640
      6          1           0       -0.886944    1.952349   -0.411560
      7          1           0       -0.000770    1.267598   -1.783182
      8          1           0        0.885474    1.952949   -0.411900
      9          1           0        1.276751   -1.766720    0.128484
     10          1           0        2.170030   -0.251788   -0.091414
     11          1           0        1.295056   -0.961927   -1.456433
     12          1           0       -1.275954   -1.767167    0.129674
     13          1           0       -1.294608   -0.963523   -1.455824
     14          1           0       -2.169939   -0.252806   -0.091332
     15          1           0       -0.817104    0.653367    1.777018
     16          1           0        0.817598    0.653624    1.776676
 ---------------------------------------------------------------------
 Rotational constants (GHZ):      4.5738213      4.5529053      4.4503398
 Standard basis: 6-31G(d) (6D, 7F)
 There are    97 symmetry adapted basis functions of A   symmetry.
 Integral buffers will be    131072 words long.
 Raffenetti 2 integral format.
 Two-electron integral symmetry is turned on.
    97 basis functions,   184 primitive gaussians,    97 cartesian basis functions
    21 alpha electrons       21 beta electrons
       nuclear repulsion energy       199.1489930960 Hartrees.
 NAtoms=   16 NActive=   16 NUniq=   16 SFac= 1.00D+00 NAtFMM=   50 NAOKFM=F Big=F
 One-electron integrals computed using PRISM.
 NBasis=    97 RedAO= T  NBF=    97
 NBsUse=    97 1.00D-06 NBFU=    97
 Initial guess read from the read-write file.
 B after Tr=     0.000000    0.000000    0.000000
         Rot=    1.000000    0.000000    0.000000    0.000000 Ang=   0.00 deg.
 Initial guess orbital symmetries:
       Occupied  (A) (A) (A) (A) (A) (A) (A) (A) (A) (A) (A) (A)
                 (A) (A) (A) (A) (A) (A) (A) (A) (A)
       Virtual   (A) (A) (A) (A) (A) (A) (A) (A) (A) (A) (A) (A)
                 (A) (A) (A) (A) (A) (A) (A) (A) (A) (A) (A) (A)
                 (A) (A) (A) (A) (A) (A) (A) (A) (A) (A) (A) (A)
                 (A) (A) (A) (A) (A) (A) (A) (A) (A) (A) (A) (A)
                 (A) (A) (A) (A) (A) (A) (A) (A) (A) (A) (A) (A)
                 (A) (A) (A) (A) (A) (A) (A) (A) (A) (A) (A) (A)
                 (A) (A) (A) (A)
 Harris functional with IExCor=  402 diagonalized for initial guess.
 ExpMin= 1.61D-01 ExpMax= 4.17D+03 ExpMxC= 6.27D+02 IAcc=1 IRadAn=         1 AccDes= 0.00D+00
 HarFok:  IExCor=  402 AccDes= 0.00D+00 IRadAn=         1 IDoV= 1
 ScaDFX=  1.000000  1.000000  1.000000  1.000000
 FoFCou: FMM=F IPFlag=           0 FMFlag=      100000 FMFlg1=           0
         NFxFlg=           0 DoJE=T BraDBF=F KetDBF=T FulRan=T
         Omega=  0.000000  0.000000  1.000000  0.000000  0.000000 ICntrl=     500 IOpCl=  0
         NMat0=    1 NMatS0=    1 NMatT0=    0 NMatD0=    1 NMtDS0=    0 NMtDT0=    0
         I1Cent=           4 NGrid=           0.
 Petite list used in FoFCou.
 Requested convergence on RMS density matrix=1.00D-08 within 128 cycles.
 Requested convergence on MAX density matrix=1.00D-06.
 Requested convergence on             energy=1.00D-06.
 No special actions if energy rises.
 Keep R1 ints in memory in canonical form, NReq=12396098.
 Integral accuracy reduced to 1.0D-05 until final iterations.
 Initial convergence to 1.0D-05 achieved.  Increase integral accuracy.
 SCF Done:  E(RB3LYP) =  -213.803025700     A.U. after   13 cycles
             Convg  =    0.9742D-08             -V/T =  2.0100
 Calling FoFJK, ICntrl=      2127 FMM=F ISym2X=0 I1Cent= 0 IOpClX= 0 NMat=1 NMatS=1 NMatT=0.
 ***** Axes restored to original set *****
 -------------------------------------------------------------------
 Center     Atomic                   Forces (Hartrees/Bohr)
 Number     Number              X              Y              Z
 -------------------------------------------------------------------
      1        6           0.001215914    0.002064077    0.001626209
      2        6           0.000386143   -0.001284530   -0.001255807
      3        6          -0.001554998   -0.002145690    0.000190895
      4        6          -0.001975592   -0.000384108   -0.001736292
      5        7          -0.004555579   -0.002010515   -0.000849526
      6        1          -0.000372116    0.000343417    0.000182218
      7        1          -0.000089613    0.000314936    0.000307414
      8        1          -0.000324263    0.000135456    0.000408156
      9        1           0.000526031    0.000619077   -0.000387506
     10        1           0.000311200    0.000364324   -0.000256490
     11        1           0.000244047   -0.000117222    0.000145490
     12        1           0.000715540   -0.000197399    0.000502559
     13        1           0.000178422    0.000180990   -0.000179505
     14        1           0.000430801   -0.000139638    0.000299754
     15        1           0.002326049    0.001567930    0.000021201
     16        1           0.002538013    0.000688894    0.000981229
 -------------------------------------------------------------------
 Cartesian Forces:  Max     0.004555579 RMS     0.001210418

 GradGradGradGradGradGradGradGradGradGradGradGradGradGradGradGradGradGrad
 Berny optimization.
 Using GEDIIS/GDIIS optimizer.
 Internal  Forces:  Max     0.002150216 RMS     0.000584236
 Search for a local minimum.
 Step number   2 out of a maximum of   85
 All quantities printed in internal units (Hartrees-Bohrs-Radians)
 Mixed Optimization -- En-DIIS/RFO-DIIS
 Update second derivatives using D2CorX and points    1    2
 DE= -1.62D-03 DEPred=-1.49D-03 R= 1.09D+00
 SS=  1.41D+00  RLast= 1.50D-01 DXNew= 5.0454D-01 4.4921D-01
 Trust test= 1.09D+00 RLast= 1.50D-01 DXMaxT set to 4.49D-01
 ITU=  1  0
 Use linear search instead of GDIIS.
     Eigenvalues ---    0.00317   0.00360   0.00360   0.00412   0.03985
     Eigenvalues ---    0.04869   0.05085   0.05383   0.05436   0.05495
     Eigenvalues ---    0.05516   0.05520   0.05529   0.05939   0.14442
     Eigenvalues ---    0.15000   0.15377   0.16000   0.16000   0.16000
     Eigenvalues ---    0.16000   0.16000   0.16000   0.16000   0.16000
     Eigenvalues ---    0.16000   0.16144   0.28964   0.29300   0.29360
     Eigenvalues ---    0.33557   0.33781   0.33830   0.33832   0.33834
     Eigenvalues ---    0.33840   0.33869   0.33880   0.33886   0.34052
     Eigenvalues ---    0.45599   0.47956
 RFO step:  Lambda=-1.40967575D-04 EMin= 3.16905796D-03
 Quartic linear search produced a step of  0.14553.
 Iteration  1 RMS(Cart)=  0.00644478 RMS(Int)=  0.00004755
 Iteration  2 RMS(Cart)=  0.00004106 RMS(Int)=  0.00002582
 Iteration  3 RMS(Cart)=  0.00000000 RMS(Int)=  0.00002582
 Variable       Old X    -DE/DX   Delta X   Delta X   Delta X     New X
                                 (Linear)    (Quad)   (Total)
    R1        2.91624   0.00001   0.00255  -0.00164   0.00091   2.91715
    R2        2.89881   0.00097   0.00090   0.00319   0.00410   2.90291
    R3        2.89881   0.00097   0.00091   0.00320   0.00410   2.90291
    R4        2.79560   0.00034  -0.00479   0.00437  -0.00042   2.79519
    R5        2.07426  -0.00001  -0.00027   0.00016  -0.00011   2.07415
    R6        2.07556  -0.00041   0.00007  -0.00142  -0.00135   2.07421
    R7        2.07426  -0.00001  -0.00027   0.00016  -0.00011   2.07415
    R8        2.06986  -0.00042  -0.00078  -0.00089  -0.00167   2.06819
    R9        2.07495  -0.00010  -0.00018  -0.00022  -0.00040   2.07454
   R10        2.07178  -0.00006  -0.00054   0.00014  -0.00040   2.07138
   R11        2.06985  -0.00041  -0.00078  -0.00088  -0.00166   2.06819
   R12        2.07179  -0.00007  -0.00054   0.00013  -0.00041   2.07138
   R13        2.07494  -0.00010  -0.00018  -0.00022  -0.00040   2.07454
   R14        1.92315   0.00215   0.00528   0.00164   0.00692   1.93007
   R15        1.92315   0.00215   0.00528   0.00164   0.00692   1.93007
    A1        1.91963  -0.00012   0.00190  -0.00409  -0.00222   1.91741
    A2        1.91962  -0.00012   0.00191  -0.00408  -0.00220   1.91741
    A3        1.95939   0.00011   0.00117   0.00201   0.00321   1.96260
    A4        1.92192  -0.00010   0.00171  -0.00391  -0.00228   1.91964
    A5        1.87107   0.00012  -0.00340   0.00521   0.00181   1.87288
    A6        1.87110   0.00012  -0.00340   0.00517   0.00178   1.87288
    A7        1.93794  -0.00062  -0.00203  -0.00337  -0.00542   1.93252
    A8        1.95342   0.00001   0.00246  -0.00098   0.00149   1.95491
    A9        1.93796  -0.00062  -0.00202  -0.00338  -0.00543   1.93253
   A10        1.87592   0.00037   0.00077   0.00270   0.00349   1.87941
   A11        1.87935   0.00056   0.00018   0.00283   0.00295   1.88231
   A12        1.87593   0.00037   0.00077   0.00270   0.00348   1.87941
   A13        1.93318  -0.00102  -0.00222  -0.00598  -0.00824   1.92494
   A14        1.94205  -0.00069  -0.00161  -0.00498  -0.00662   1.93542
   A15        1.93574   0.00051   0.00037   0.00468   0.00506   1.94080
   A16        1.88175   0.00068   0.00058   0.00203   0.00253   1.88428
   A17        1.89203   0.00047   0.00246   0.00384   0.00632   1.89835
   A18        1.87692   0.00012   0.00065   0.00075   0.00141   1.87833
   A19        1.93312  -0.00101  -0.00225  -0.00594  -0.00822   1.92490
   A20        1.93576   0.00050   0.00038   0.00464   0.00503   1.94080
   A21        1.94207  -0.00069  -0.00160  -0.00499  -0.00662   1.93544
   A22        1.89203   0.00047   0.00247   0.00384   0.00633   1.89836
   A23        1.88176   0.00067   0.00058   0.00203   0.00253   1.88430
   A24        1.87692   0.00012   0.00065   0.00075   0.00141   1.87833
   A25        1.90366   0.00116  -0.00047   0.00404   0.00355   1.90721
   A26        1.90365   0.00116  -0.00048   0.00404   0.00354   1.90719
   A27        1.86511  -0.00176  -0.00621  -0.01807  -0.02433   1.84079
    D1       -3.12696  -0.00008   0.00355  -0.00451  -0.00098  -3.12794
    D2        1.05983  -0.00014   0.00228  -0.00498  -0.00269   1.05713
    D3       -1.03658  -0.00020   0.00101  -0.00542  -0.00439  -1.04098
    D4        1.03655   0.00020  -0.00093   0.00566   0.00471   1.04127
    D5       -1.05984   0.00014  -0.00220   0.00520   0.00300  -1.05684
    D6        3.12693   0.00008  -0.00347   0.00475   0.00130   3.12823
    D7       -1.04522   0.00006   0.00131   0.00059   0.00188  -1.04334
    D8        3.14157   0.00000   0.00004   0.00013   0.00016  -3.14145
    D9        1.04516  -0.00006  -0.00123  -0.00032  -0.00153   1.04362
   D10        3.13016  -0.00002  -0.00165   0.00755   0.00592   3.13608
   D11        1.03723   0.00027   0.00024   0.01227   0.01247   1.04970
   D12       -1.05132   0.00023   0.00023   0.01151   0.01173  -1.03959
   D13       -1.03473  -0.00031   0.00296  -0.00274   0.00026  -1.03446
   D14       -3.12766  -0.00002   0.00485   0.00198   0.00682  -3.12084
   D15        1.06698  -0.00006   0.00484   0.00122   0.00607   1.07305
   D16        0.99524  -0.00015  -0.00211   0.00427   0.00219   0.99743
   D17       -1.09769   0.00014  -0.00022   0.00899   0.00875  -1.08894
   D18        3.09695   0.00010  -0.00023   0.00823   0.00800   3.10495
   D19       -3.12931   0.00001   0.00155  -0.00827  -0.00673  -3.13605
   D20        1.05219  -0.00024  -0.00032  -0.01224  -0.01254   1.03964
   D21       -1.03639  -0.00027  -0.00034  -0.01297  -0.01327  -1.04966
   D22        1.03557   0.00031  -0.00306   0.00203  -0.00107   1.03450
   D23       -1.06612   0.00006  -0.00493  -0.00194  -0.00688  -1.07300
   D24        3.12849   0.00002  -0.00494  -0.00268  -0.00761   3.12089
   D25       -0.99438   0.00014   0.00201  -0.00500  -0.00301  -0.99740
   D26       -3.09607  -0.00010   0.00014  -0.00897  -0.00883  -3.10490
   D27        1.09854  -0.00014   0.00013  -0.00971  -0.00955   1.08899
   D28        1.01542  -0.00041  -0.00398  -0.00829  -0.01226   1.00316
   D29       -1.01574   0.00041   0.00406   0.00882   0.01287  -1.00287
   D30        3.12537  -0.00041  -0.00315  -0.00869  -0.01186   3.11351
   D31        1.09420   0.00040   0.00490   0.00842   0.01328   1.10748
   D32       -1.09453  -0.00040  -0.00482  -0.00788  -0.01266  -1.10720
   D33       -3.12570   0.00042   0.00323   0.00923   0.01247  -3.11323
         Item               Value     Threshold  Converged?
 Maximum Force            0.002150     0.000450     NO 
 RMS     Force            0.000584     0.000300     NO 
 Maximum Displacement     0.018902     0.001800     NO 
 RMS     Displacement     0.006453     0.001200     NO 
 Predicted change in Energy=-9.453696D-05
 GradGradGradGradGradGradGradGradGradGradGradGradGradGradGradGradGradGrad

                          Input orientation:                          
 ---------------------------------------------------------------------
 Center     Atomic      Atomic             Coordinates (Angstroms)
 Number     Number       Type             X           Y           Z
 ---------------------------------------------------------------------
      1          6           0       -0.014669    0.096004    0.091001
      2          6           0        1.235933   -0.419433   -0.652841
      3          6           0       -0.638451   -1.041586    0.913527
      4          6           0       -1.037923    0.635158   -0.919957
      5          7           0        0.299229    1.196082    1.028646
      6          1           0        1.701406    0.386427   -1.234767
      7          1           0        0.994844   -1.235184   -1.346528
      8          1           0        1.982903   -0.795924    0.057793
      9          1           0       -1.522985   -0.682227    1.448560
     10          1           0        0.074062   -1.424131    1.655923
     11          1           0       -0.931209   -1.880456    0.271588
     12          1           0       -1.925588    1.007819   -0.399405
     13          1           0       -1.344931   -0.144079   -1.627085
     14          1           0       -0.613975    1.463789   -1.502029
     15          1           0        0.741541    1.960480    0.515611
     16          1           0        0.999822    0.877271    1.699972
 ---------------------------------------------------------------------
                    Distance matrix (angstroms):
                    1          2          3          4          5
     1  C    0.000000
     2  C    1.543691   0.000000
     3  C    1.536153   2.520694   0.000000
     4  C    1.536155   2.520701   2.516488   0.000000
     5  N    1.479149   2.512907   2.428921   2.428923   0.000000
     6  H    2.187903   1.097594   3.482717   2.768555   2.782927
     7  H    2.204012   1.097622   2.795172   2.795046   3.469350
     8  H    2.187906   1.097593   2.768417   3.482726   2.783056
     9  H    2.173391   3.478013   1.094440   2.753300   2.650441
    10  H    2.183498   2.773040   1.097801   3.480279   2.703644
    11  H    2.186105   2.772302   1.096127   2.785585   3.398853
    12  H    2.173365   3.478001   2.753284   1.094440   2.650393
    13  H    2.186105   2.772332   2.785560   1.096128   3.398853
    14  H    2.183517   2.773050   3.480289   1.097801   2.703687
    15  H    2.056311   2.696978   3.327930   2.642693   1.021347
    16  H    2.056297   2.696836   2.642811   3.327920   1.021346
                    6          7          8          9         10
     6  H    0.000000
     7  H    1.772383   0.000000
     8  H    1.774233   1.772379   0.000000
     9  H    4.328852   3.802334   3.773382   0.000000
    10  H    3.779213   3.146149   2.567555   1.773127   0.000000
    11  H    3.786624   2.596990   3.116724   1.780790   1.770645
    12  H    3.773465   3.802239   4.328836   2.536400   3.759967
    13  H    3.116973   2.596876   3.786581   3.127443   3.798712
    14  H    2.567709   3.145939   3.779302   3.760008   4.334297
    15  H    2.542205   3.707289   3.057506   3.603106   3.633378
    16  H    3.057097   3.707244   2.542201   2.976541   2.481013
                   11         12         13         14         15
    11  H    0.000000
    12  H    3.127484   0.000000
    13  H    2.605980   1.780795   0.000000
    14  H    3.798727   1.773137   1.770642   0.000000
    15  H    4.196478   2.976305   3.657004   2.480926   0.000000
    16  H    3.657078   3.603116   4.196466   3.633339   1.625658
                   16
    16  H    0.000000
 Stoichiometry    C4H11N
 Framework group  C1[X(C4H11N)]
 Deg. of freedom    42
 Full point group                 C1      NOp   1
 Largest Abelian subgroup         C1      NOp   1
 Largest concise Abelian subgroup C1      NOp   1
                         Standard orientation:                         
 ---------------------------------------------------------------------
 Center     Atomic      Atomic             Coordinates (Angstroms)
 Number     Number       Type             X           Y           Z
 ---------------------------------------------------------------------
      1          6           0       -0.000001   -0.005158    0.016290
      2          6           0        0.000354    1.353378   -0.716759
      3          6           0        1.258106   -0.801895   -0.360729
      4          6           0       -1.258382   -0.801364   -0.360944
      5          7           0       -0.000094    0.146932    1.487599
      6          1           0       -0.886586    1.940777   -0.446551
      7          1           0        0.000276    1.232123   -1.807663
      8          1           0        0.887647    1.940278   -0.446627
      9          1           0        1.267823   -1.764612    0.159734
     10          1           0        2.167095   -0.255066   -0.078091
     11          1           0        1.302920   -0.984353   -1.440634
     12          1           0       -1.268577   -1.764051    0.159564
     13          1           0       -1.303060   -0.983849   -1.440851
     14          1           0       -2.167202   -0.254149   -0.078511
     15          1           0       -0.812901    0.697362    1.769594
     16          1           0        0.812756    0.697249    1.769689
 ---------------------------------------------------------------------
 Rotational constants (GHZ):      4.5674744      4.5442847      4.4516992
 Standard basis: 6-31G(d) (6D, 7F)
 There are    97 symmetry adapted basis functions of A   symmetry.
 Integral buffers will be    131072 words long.
 Raffenetti 2 integral format.
 Two-electron integral symmetry is turned on.
    97 basis functions,   184 primitive gaussians,    97 cartesian basis functions
    21 alpha electrons       21 beta electrons
       nuclear repulsion energy       199.0510424199 Hartrees.
 NAtoms=   16 NActive=   16 NUniq=   16 SFac= 1.00D+00 NAtFMM=   50 NAOKFM=F Big=F
 One-electron integrals computed using PRISM.
 NBasis=    97 RedAO= T  NBF=    97
 NBsUse=    97 1.00D-06 NBFU=    97
 Initial guess read from the read-write file.
 B after Tr=     0.000000    0.000000    0.000000
         Rot=    1.000000    0.000000    0.000000    0.000000 Ang=   0.00 deg.
 Initial guess orbital symmetries:
       Occupied  (A) (A) (A) (A) (A) (A) (A) (A) (A) (A) (A) (A)
                 (A) (A) (A) (A) (A) (A) (A) (A) (A)
       Virtual   (A) (A) (A) (A) (A) (A) (A) (A) (A) (A) (A) (A)
                 (A) (A) (A) (A) (A) (A) (A) (A) (A) (A) (A) (A)
                 (A) (A) (A) (A) (A) (A) (A) (A) (A) (A) (A) (A)
                 (A) (A) (A) (A) (A) (A) (A) (A) (A) (A) (A) (A)
                 (A) (A) (A) (A) (A) (A) (A) (A) (A) (A) (A) (A)
                 (A) (A) (A) (A) (A) (A) (A) (A) (A) (A) (A) (A)
                 (A) (A) (A) (A)
 Requested convergence on RMS density matrix=1.00D-08 within 128 cycles.
 Requested convergence on MAX density matrix=1.00D-06.
 Requested convergence on             energy=1.00D-06.
 No special actions if energy rises.
 Keep R1 ints in memory in canonical form, NReq=12396098.
 SCF Done:  E(RB3LYP) =  -213.803105958     A.U. after    9 cycles
             Convg  =    0.3786D-08             -V/T =  2.0101
 Calling FoFJK, ICntrl=      2127 FMM=F ISym2X=0 I1Cent= 0 IOpClX= 0 NMat=1 NMatS=1 NMatT=0.
 ***** Axes restored to original set *****
 -------------------------------------------------------------------
 Center     Atomic                   Forces (Hartrees/Bohr)
 Number     Number              X              Y              Z
 -------------------------------------------------------------------
      1        6           0.000429240   -0.000287259   -0.000360856
      2        6           0.000177888    0.000131470    0.000080165
      3        6          -0.000043103   -0.000056745    0.000329285
      4        6          -0.000129393    0.000302391   -0.000062443
      5        7           0.000136097    0.000115673    0.000077038
      6        1           0.000087701   -0.000032869   -0.000058537
      7        1          -0.000090674    0.000120086    0.000130346
      8        1           0.000091437   -0.000040802   -0.000047988
      9        1          -0.000123677   -0.000069784    0.000122792
     10        1           0.000002462   -0.000034714    0.000054210
     11        1           0.000066094    0.000250061   -0.000059392
     12        1          -0.000162067    0.000086445   -0.000049385
     13        1           0.000128810   -0.000015131    0.000232239
     14        1          -0.000016332    0.000049143   -0.000036401
     15        1          -0.000268607   -0.000294739   -0.000138547
     16        1          -0.000285876   -0.000223225   -0.000212524
 -------------------------------------------------------------------
 Cartesian Forces:  Max     0.000429240 RMS     0.000168054

 GradGradGradGradGradGradGradGradGradGradGradGradGradGradGradGradGradGrad
 Berny optimization.
 Using GEDIIS/GDIIS optimizer.
 Internal  Forces:  Max     0.000562368 RMS     0.000154263
 Search for a local minimum.
 Step number   3 out of a maximum of   85
 All quantities printed in internal units (Hartrees-Bohrs-Radians)
 Mixed Optimization -- En-DIIS/RFO-DIIS
 Swaping is turned off.
 Update second derivatives using D2CorX and points    1    2    3
 DE= -8.03D-05 DEPred=-9.45D-05 R= 8.49D-01
 SS=  1.41D+00  RLast= 5.91D-02 DXNew= 7.5548D-01 1.7716D-01
 Trust test= 8.49D-01 RLast= 5.91D-02 DXMaxT set to 4.49D-01
 ITU=  1  1  0
     Eigenvalues ---    0.00317   0.00360   0.00362   0.00412   0.03777
     Eigenvalues ---    0.04979   0.05055   0.05392   0.05495   0.05516
     Eigenvalues ---    0.05543   0.05585   0.05597   0.05956   0.14644
     Eigenvalues ---    0.15284   0.15371   0.15998   0.16000   0.16000
     Eigenvalues ---    0.16000   0.16000   0.16000   0.16000   0.16000
     Eigenvalues ---    0.16075   0.17538   0.28437   0.29253   0.29360
     Eigenvalues ---    0.33474   0.33790   0.33830   0.33832   0.33833
     Eigenvalues ---    0.33839   0.33869   0.33886   0.33959   0.34343
     Eigenvalues ---    0.45971   0.47956
 En-DIIS/RFO-DIIS IScMMF=        0 using points:     3    2
 RFO step:  Lambda=-3.83468569D-06.
 DidBck=F Rises=F RFO-DIIS coefs:    0.86651    0.13349
 Iteration  1 RMS(Cart)=  0.00172414 RMS(Int)=  0.00000226
 Iteration  2 RMS(Cart)=  0.00000188 RMS(Int)=  0.00000157
 Iteration  3 RMS(Cart)=  0.00000000 RMS(Int)=  0.00000157
 Variable       Old X    -DE/DX   Delta X   Delta X   Delta X     New X
                                  (DIIS)     (GDIIS)  (Total)
    R1        2.91715   0.00011  -0.00012   0.00034   0.00022   2.91737
    R2        2.90291   0.00021  -0.00055   0.00125   0.00070   2.90361
    R3        2.90291   0.00021  -0.00055   0.00124   0.00070   2.90361
    R4        2.79519  -0.00056   0.00006  -0.00134  -0.00129   2.79390
    R5        2.07415   0.00004   0.00001   0.00011   0.00012   2.07428
    R6        2.07421  -0.00015   0.00018  -0.00061  -0.00043   2.07378
    R7        2.07415   0.00004   0.00002   0.00011   0.00013   2.07428
    R8        2.06819   0.00014   0.00022   0.00013   0.00035   2.06854
    R9        2.07454   0.00005   0.00005   0.00008   0.00013   2.07467
   R10        2.07138  -0.00017   0.00005  -0.00049  -0.00044   2.07094
   R11        2.06819   0.00014   0.00022   0.00013   0.00035   2.06854
   R12        2.07138  -0.00018   0.00005  -0.00049  -0.00044   2.07094
   R13        2.07454   0.00005   0.00005   0.00008   0.00013   2.07467
   R14        1.93007  -0.00027  -0.00092   0.00035  -0.00057   1.92950
   R15        1.93007  -0.00027  -0.00092   0.00036  -0.00057   1.92950
    A1        1.91741   0.00005   0.00030   0.00059   0.00089   1.91829
    A2        1.91741   0.00005   0.00029   0.00059   0.00088   1.91830
    A3        1.96260   0.00002  -0.00043   0.00027  -0.00016   1.96244
    A4        1.91964   0.00005   0.00030   0.00024   0.00055   1.92018
    A5        1.87288  -0.00009  -0.00024  -0.00087  -0.00111   1.87177
    A6        1.87288  -0.00009  -0.00024  -0.00087  -0.00111   1.87177
    A7        1.93252   0.00016   0.00072   0.00026   0.00099   1.93351
    A8        1.95491  -0.00025  -0.00020  -0.00153  -0.00173   1.95318
    A9        1.93253   0.00016   0.00072   0.00026   0.00099   1.93352
   A10        1.87941   0.00002  -0.00047   0.00036  -0.00010   1.87931
   A11        1.88231  -0.00011  -0.00039   0.00035  -0.00004   1.88226
   A12        1.87941   0.00002  -0.00046   0.00036  -0.00010   1.87931
   A13        1.92494   0.00022   0.00110   0.00016   0.00126   1.92620
   A14        1.93542   0.00008   0.00088  -0.00038   0.00050   1.93592
   A15        1.94080  -0.00033  -0.00068  -0.00130  -0.00198   1.93882
   A16        1.88428  -0.00010  -0.00034   0.00031  -0.00002   1.88426
   A17        1.89835   0.00002  -0.00084   0.00075  -0.00009   1.89826
   A18        1.87833   0.00010  -0.00019   0.00054   0.00035   1.87868
   A19        1.92490   0.00023   0.00110   0.00019   0.00129   1.92619
   A20        1.94080  -0.00033  -0.00067  -0.00131  -0.00198   1.93882
   A21        1.93544   0.00008   0.00088  -0.00040   0.00048   1.93593
   A22        1.89836   0.00002  -0.00084   0.00075  -0.00010   1.89826
   A23        1.88430  -0.00010  -0.00034   0.00031  -0.00003   1.88427
   A24        1.87833   0.00010  -0.00019   0.00054   0.00035   1.87868
   A25        1.90721  -0.00040  -0.00047  -0.00168  -0.00216   1.90505
   A26        1.90719  -0.00040  -0.00047  -0.00166  -0.00213   1.90505
   A27        1.84079   0.00035   0.00325  -0.00175   0.00149   1.84228
    D1       -3.12794   0.00003   0.00013   0.00002   0.00015  -3.12779
    D2        1.05713   0.00006   0.00036   0.00041   0.00077   1.05790
    D3       -1.04098   0.00010   0.00059   0.00080   0.00138  -1.03959
    D4        1.04127  -0.00010  -0.00063  -0.00103  -0.00166   1.03961
    D5       -1.05684  -0.00006  -0.00040  -0.00064  -0.00104  -1.05789
    D6        3.12823  -0.00003  -0.00017  -0.00026  -0.00043   3.12780
    D7       -1.04334  -0.00004  -0.00025  -0.00050  -0.00076  -1.04409
    D8       -3.14145   0.00000  -0.00002  -0.00011  -0.00014  -3.14159
    D9        1.04362   0.00004   0.00020   0.00027   0.00048   1.04410
   D10        3.13608  -0.00001  -0.00079  -0.00185  -0.00264   3.13344
   D11        1.04970  -0.00009  -0.00166  -0.00209  -0.00376   1.04595
   D12       -1.03959  -0.00005  -0.00157  -0.00165  -0.00322  -1.04281
   D13       -1.03446   0.00011  -0.00004  -0.00058  -0.00062  -1.03509
   D14       -3.12084   0.00004  -0.00091  -0.00083  -0.00174  -3.12258
   D15        1.07305   0.00007  -0.00081  -0.00039  -0.00120   1.07185
   D16        0.99743  -0.00001  -0.00029  -0.00198  -0.00228   0.99516
   D17       -1.08894  -0.00009  -0.00117  -0.00223  -0.00339  -1.09234
   D18        3.10495  -0.00005  -0.00107  -0.00179  -0.00286   3.10209
   D19       -3.13605   0.00001   0.00090   0.00178   0.00268  -3.13336
   D20        1.03964   0.00005   0.00167   0.00157   0.00325   1.04289
   D21       -1.04966   0.00009   0.00177   0.00203   0.00380  -1.04586
   D22        1.03450  -0.00011   0.00014   0.00052   0.00066   1.03516
   D23       -1.07300  -0.00007   0.00092   0.00031   0.00123  -1.07177
   D24        3.12089  -0.00004   0.00102   0.00076   0.00178   3.12266
   D25       -0.99740   0.00001   0.00040   0.00191   0.00232  -0.99508
   D26       -3.10490   0.00005   0.00118   0.00171   0.00288  -3.10201
   D27        1.08899   0.00009   0.00128   0.00216   0.00343   1.09242
   D28        1.00316  -0.00001   0.00164  -0.00203  -0.00040   1.00277
   D29       -1.00287   0.00001  -0.00172   0.00189   0.00017  -1.00270
   D30        3.11351   0.00000   0.00158  -0.00172  -0.00014   3.11337
   D31        1.10748   0.00002  -0.00177   0.00220   0.00043   1.10791
   D32       -1.10720  -0.00002   0.00169  -0.00234  -0.00065  -1.10785
   D33       -3.11323   0.00000  -0.00166   0.00158  -0.00008  -3.11331
         Item               Value     Threshold  Converged?
 Maximum Force            0.000562     0.000450     NO 
 RMS     Force            0.000154     0.000300     YES
 Maximum Displacement     0.005071     0.001800     NO 
 RMS     Displacement     0.001724     0.001200     NO 
 Predicted change in Energy=-4.581530D-06
 GradGradGradGradGradGradGradGradGradGradGradGradGradGradGradGradGradGrad

                          Input orientation:                          
 ---------------------------------------------------------------------
 Center     Atomic      Atomic             Coordinates (Angstroms)
 Number     Number       Type             X           Y           Z
 ---------------------------------------------------------------------
      1          6           0       -0.014550    0.095782    0.090767
      2          6           0        1.237068   -0.418593   -0.652341
      3          6           0       -0.638408   -1.041532    0.914308
      4          6           0       -1.038055    0.635949   -0.919955
      5          7           0        0.297919    1.195418    1.028334
      6          1           0        1.702679    0.386905   -1.234781
      7          1           0        0.995345   -1.234218   -1.345596
      8          1           0        1.984338   -0.795344    0.057943
      9          1           0       -1.522244   -0.682581    1.451146
     10          1           0        0.074798   -1.425873    1.655211
     11          1           0       -0.932521   -1.878634    0.271078
     12          1           0       -1.925557    1.010503   -0.400091
     13          1           0       -1.345701   -0.144629   -1.624964
     14          1           0       -0.613454    1.463055   -1.503845
     15          1           0        0.740086    1.958643    0.514029
     16          1           0        0.998267    0.875159    1.698767
 ---------------------------------------------------------------------
                    Distance matrix (angstroms):
                    1          2          3          4          5
     1  C    0.000000
     2  C    1.543807   0.000000
     3  C    1.536523   2.521875   0.000000
     4  C    1.536523   2.521877   2.517575   0.000000
     5  N    1.478468   2.512310   2.427685   2.427686   0.000000
     6  H    2.188768   1.097660   3.484208   2.769975   2.783655
     7  H    2.202709   1.097396   2.795253   2.795248   3.467719
     8  H    2.188776   1.097660   2.769976   3.484214   2.783667
     9  H    2.174769   3.479677   1.094627   2.755917   2.649272
    10  H    2.184239   2.773136   1.097870   3.481528   2.704426
    11  H    2.184834   2.773363   1.095896   2.784390   3.396647
    12  H    2.174765   3.479675   2.755947   1.094627   2.649233
    13  H    2.184832   2.773400   2.784349   1.095895   3.396645
    14  H    2.184241   2.773102   3.481529   1.097870   2.704470
    15  H    2.053990   2.694190   3.325886   2.639624   1.021046
    16  H    2.053994   2.694166   2.639657   3.325889   1.021046
                    6          7          8          9         10
     6  H    0.000000
     7  H    1.772186   0.000000
     8  H    1.774312   1.772185   0.000000
     9  H    4.331066   3.803198   3.774897   0.000000
    10  H    3.779975   3.144675   2.568107   1.773322   0.000000
    11  H    3.787421   2.597224   3.118816   1.780695   1.770737
    12  H    3.774874   3.803211   4.331069   2.540919   3.763192
    13  H    3.118876   2.597257   3.787449   3.127780   3.797229
    14  H    2.568067   3.144609   3.779957   3.763193   4.335808
    15  H    2.540725   3.703745   3.056243   3.601720   3.633160
    16  H    3.056190   3.703732   2.540713   2.973356   2.479806
                   11         12         13         14         15
    11  H    0.000000
    12  H    3.127890   0.000000
    13  H    2.602396   1.780695   0.000000
    14  H    3.797241   1.773327   1.770735   0.000000
    15  H    4.193010   2.973253   3.653703   2.479817   0.000000
    16  H    3.653713   3.601704   4.193011   3.633179   1.626100
                   16
    16  H    0.000000
 Stoichiometry    C4H11N
 Framework group  C1[X(C4H11N)]
 Deg. of freedom    42
 Full point group                 C1      NOp   1
 Largest Abelian subgroup         C1      NOp   1
 Largest concise Abelian subgroup C1      NOp   1
                         Standard orientation:                         
 ---------------------------------------------------------------------
 Center     Atomic      Atomic             Coordinates (Angstroms)
 Number     Number       Type             X           Y           Z
 ---------------------------------------------------------------------
      1          6           0        0.000000   -0.005064    0.015838
      2          6           0        0.000070    1.360023   -0.705185
      3          6           0        1.258758   -0.798894   -0.366607
      4          6           0       -1.258817   -0.798785   -0.366641
      5          7           0       -0.000013    0.134141    1.487738
      6          1           0       -0.887062    1.945377   -0.430934
      7          1           0        0.000073    1.246584   -1.796702
      8          1           0        0.887250    1.945302   -0.430924
      9          1           0        1.270365   -1.765324    0.147285
     10          1           0        2.167893   -0.253193   -0.082000
     11          1           0        1.301197   -0.973950   -1.447598
     12          1           0       -1.270555   -1.765180    0.147314
     13          1           0       -1.301199   -0.973908   -1.447622
     14          1           0       -2.167915   -0.252968   -0.082136
     15          1           0       -0.813060    0.682307    1.772350
     16          1           0        0.813040    0.682287    1.772371
 ---------------------------------------------------------------------
 Rotational constants (GHZ):      4.5695267      4.5466221      4.4480796
 Standard basis: 6-31G(d) (6D, 7F)
 There are    97 symmetry adapted basis functions of A   symmetry.
 Integral buffers will be    131072 words long.
 Raffenetti 2 integral format.
 Two-electron integral symmetry is turned on.
    97 basis functions,   184 primitive gaussians,    97 cartesian basis functions
    21 alpha electrons       21 beta electrons
       nuclear repulsion energy       199.0595444122 Hartrees.
 NAtoms=   16 NActive=   16 NUniq=   16 SFac= 1.00D+00 NAtFMM=   50 NAOKFM=F Big=F
 One-electron integrals computed using PRISM.
 NBasis=    97 RedAO= T  NBF=    97
 NBsUse=    97 1.00D-06 NBFU=    97
 Initial guess read from the read-write file.
 B after Tr=     0.000000    0.000000    0.000000
         Rot=    1.000000    0.000000    0.000000    0.000000 Ang=   0.00 deg.
 Initial guess orbital symmetries:
       Occupied  (A) (A) (A) (A) (A) (A) (A) (A) (A) (A) (A) (A)
                 (A) (A) (A) (A) (A) (A) (A) (A) (A)
       Virtual   (A) (A) (A) (A) (A) (A) (A) (A) (A) (A) (A) (A)
                 (A) (A) (A) (A) (A) (A) (A) (A) (A) (A) (A) (A)
                 (A) (A) (A) (A) (A) (A) (A) (A) (A) (A) (A) (A)
                 (A) (A) (A) (A) (A) (A) (A) (A) (A) (A) (A) (A)
                 (A) (A) (A) (A) (A) (A) (A) (A) (A) (A) (A) (A)
                 (A) (A) (A) (A) (A) (A) (A) (A) (A) (A) (A) (A)
                 (A) (A) (A) (A)
 Requested convergence on RMS density matrix=1.00D-08 within 128 cycles.
 Requested convergence on MAX density matrix=1.00D-06.
 Requested convergence on             energy=1.00D-06.
 No special actions if energy rises.
 Keep R1 ints in memory in canonical form, NReq=12396098.
 SCF Done:  E(RB3LYP) =  -213.803110609     A.U. after    8 cycles
             Convg  =    0.4283D-08             -V/T =  2.0101
 Calling FoFJK, ICntrl=      2127 FMM=F ISym2X=0 I1Cent= 0 IOpClX= 0 NMat=1 NMatS=1 NMatT=0.
 ***** Axes restored to original set *****
 -------------------------------------------------------------------
 Center     Atomic                   Forces (Hartrees/Bohr)
 Number     Number              X              Y              Z
 -------------------------------------------------------------------
      1        6           0.000044505   -0.000051777   -0.000055860
      2        6          -0.000052093    0.000012012    0.000021821
      3        6          -0.000015550   -0.000069500   -0.000001160
      4        6          -0.000028712   -0.000012640   -0.000063052
      5        7           0.000099983    0.000150379    0.000114924
      6        1          -0.000000625   -0.000011158    0.000005964
      7        1          -0.000011088   -0.000012449   -0.000009057
      8        1          -0.000005031    0.000004721   -0.000010820
      9        1           0.000013857    0.000006942   -0.000016873
     10        1           0.000000243    0.000011757   -0.000007258
     11        1          -0.000010565   -0.000002572   -0.000013893
     12        1           0.000018629   -0.000012710    0.000004049
     13        1          -0.000007482   -0.000016320    0.000000278
     14        1           0.000004196   -0.000005210    0.000012155
     15        1          -0.000029071    0.000021799   -0.000009439
     16        1          -0.000021197   -0.000013274    0.000028221
 -------------------------------------------------------------------
[...]
 ! A4    A(3,1,4)              110.0184         -DE/DX =    0.0                 !
 ! A5    A(3,1,5)              107.2444         -DE/DX =    0.0                 !
 ! A6    A(4,1,5)              107.2445         -DE/DX =    0.0                 !
 ! A7    A(1,2,6)              110.7819         -DE/DX =    0.0                 !
 ! A8    A(1,2,7)              111.9092         -DE/DX =    0.0                 !
 ! A9    A(1,2,8)              110.7824         -DE/DX =    0.0                 !
 ! A10   A(6,2,7)              107.6764         -DE/DX =    0.0                 !
 ! A11   A(6,2,8)              107.8457         -DE/DX =    0.0                 !
 ! A12   A(7,2,8)              107.6763         -DE/DX =    0.0                 !
 ! A13   A(1,3,9)              110.3631         -DE/DX =    0.0                 !
 ! A14   A(1,3,10)             110.9203         -DE/DX =    0.0                 !
 ! A15   A(1,3,11)             111.0861         -DE/DX =    0.0                 !
 ! A16   A(9,3,10)             107.9604         -DE/DX =    0.0                 !
 ! A17   A(9,3,11)             108.7623         -DE/DX =    0.0                 !
 ! A18   A(10,3,11)            107.6403         -DE/DX =    0.0                 !
 ! A19   A(1,4,12)             110.3628         -DE/DX =    0.0                 !
 ! A20   A(1,4,13)             111.086          -DE/DX =    0.0                 !
 ! A21   A(1,4,14)             110.9205         -DE/DX =    0.0                 !
 ! A22   A(12,4,13)            108.7623         -DE/DX =    0.0                 !
 ! A23   A(12,4,14)            107.9608         -DE/DX =    0.0                 !
 ! A24   A(13,4,14)            107.6402         -DE/DX =    0.0                 !
 ! A25   A(1,5,15)             109.1512         -DE/DX =    0.0                 !
 ! A26   A(1,5,16)             109.1515         -DE/DX =    0.0                 !
 ! A27   A(15,5,16)            105.5548         -DE/DX =    0.0                 !
 ! D1    D(3,1,2,6)           -179.2089         -DE/DX =    0.0                 !
 ! D2    D(3,1,2,7)             60.6135         -DE/DX =    0.0                 !
 ! D3    D(3,1,2,8)            -59.5643         -DE/DX =    0.0                 !
 ! D4    D(4,1,2,6)             59.565          -DE/DX =    0.0                 !
 ! D5    D(4,1,2,7)            -60.6126         -DE/DX =    0.0                 !
 ! D6    D(4,1,2,8)            179.2096         -DE/DX =    0.0                 !
 ! D7    D(5,1,2,6)            -59.8221         -DE/DX =    0.0                 !
 ! D8    D(5,1,2,7)           -179.9996         -DE/DX =    0.0                 !
 ! D9    D(5,1,2,8)             59.8225         -DE/DX =    0.0                 !
 ! D10   D(2,1,3,9)            179.5329         -DE/DX =    0.0                 !
 ! D11   D(2,1,3,10)            59.9283         -DE/DX =    0.0                 !
 ! D12   D(2,1,3,11)           -59.7486         -DE/DX =    0.0                 !
 ! D13   D(4,1,3,9)            -59.306          -DE/DX =    0.0                 !
 ! D14   D(4,1,3,10)          -178.9106         -DE/DX =    0.0                 !
 ! D15   D(4,1,3,11)            61.4125         -DE/DX =    0.0                 !
 ! D16   D(5,1,3,9)             57.0184         -DE/DX =    0.0                 !
 ! D17   D(5,1,3,10)           -62.5862         -DE/DX =    0.0                 !
 ! D18   D(5,1,3,11)           177.7369         -DE/DX =    0.0                 !
 ! D19   D(2,1,4,12)          -179.5285         -DE/DX =    0.0                 !
 ! D20   D(2,1,4,13)            59.7532         -DE/DX =    0.0                 !
 ! D21   D(2,1,4,14)           -59.9235         -DE/DX =    0.0                 !
 ! D22   D(3,1,4,12)            59.3104         -DE/DX =    0.0                 !
 ! D23   D(3,1,4,13)           -61.4078         -DE/DX =    0.0                 !
 ! D24   D(3,1,4,14)           178.9154         -DE/DX =    0.0                 !
 ! D25   D(5,1,4,12)           -57.014          -DE/DX =    0.0                 !
 ! D26   D(5,1,4,13)          -177.7322         -DE/DX =    0.0                 !
 ! D27   D(5,1,4,14)            62.5911         -DE/DX =    0.0                 !
 ! D28   D(2,1,5,15)            57.4542         -DE/DX =    0.0                 !
 ! D29   D(2,1,5,16)           -57.4504         -DE/DX =    0.0                 !
 ! D30   D(3,1,5,15)           178.3832         -DE/DX =    0.0                 !
 ! D31   D(3,1,5,16)            63.4786         -DE/DX =    0.0                 !
 ! D32   D(4,1,5,15)           -63.475          -DE/DX =    0.0                 !
 ! D33   D(4,1,5,16)          -178.3796         -DE/DX =    0.0                 !
 --------------------------------------------------------------------------------
 GradGradGradGradGradGradGradGradGradGradGradGradGradGradGradGradGradGrad

                          Input orientation:                          
 ---------------------------------------------------------------------
 Center     Atomic      Atomic             Coordinates (Angstroms)
 Number     Number       Type             X           Y           Z
 ---------------------------------------------------------------------
      1          6           0       -0.014550    0.095782    0.090767
      2          6           0        1.237068   -0.418593   -0.652341
      3          6           0       -0.638408   -1.041532    0.914308
      4          6           0       -1.038055    0.635949   -0.919955
      5          7           0        0.297919    1.195418    1.028334
      6          1           0        1.702679    0.386905   -1.234781
      7          1           0        0.995345   -1.234218   -1.345596
      8          1           0        1.984338   -0.795344    0.057943
      9          1           0       -1.522244   -0.682581    1.451146
     10          1           0        0.074798   -1.425873    1.655211
     11          1           0       -0.932521   -1.878634    0.271078
     12          1           0       -1.925557    1.010503   -0.400091
     13          1           0       -1.345701   -0.144629   -1.624964
     14          1           0       -0.613454    1.463055   -1.503845
     15          1           0        0.740086    1.958643    0.514029
     16          1           0        0.998267    0.875159    1.698767
 ---------------------------------------------------------------------
                    Distance matrix (angstroms):
                    1          2          3          4          5
     1  C    0.000000
     2  C    1.543807   0.000000
     3  C    1.536523   2.521875   0.000000
     4  C    1.536523   2.521877   2.517575   0.000000
     5  N    1.478468   2.512310   2.427685   2.427686   0.000000
     6  H    2.188768   1.097660   3.484208   2.769975   2.783655
     7  H    2.202709   1.097396   2.795253   2.795248   3.467719
     8  H    2.188776   1.097660   2.769976   3.484214   2.783667
     9  H    2.174769   3.479677   1.094627   2.755917   2.649272
    10  H    2.184239   2.773136   1.097870   3.481528   2.704426
    11  H    2.184834   2.773363   1.095896   2.784390   3.396647
    12  H    2.174765   3.479675   2.755947   1.094627   2.649233
    13  H    2.184832   2.773400   2.784349   1.095895   3.396645
    14  H    2.184241   2.773102   3.481529   1.097870   2.704470
    15  H    2.053990   2.694190   3.325886   2.639624   1.021046
    16  H    2.053994   2.694166   2.639657   3.325889   1.021046
                    6          7          8          9         10
     6  H    0.000000
     7  H    1.772186   0.000000
     8  H    1.774312   1.772185   0.000000
     9  H    4.331066   3.803198   3.774897   0.000000
    10  H    3.779975   3.144675   2.568107   1.773322   0.000000
    11  H    3.787421   2.597224   3.118816   1.780695   1.770737
    12  H    3.774874   3.803211   4.331069   2.540919   3.763192
    13  H    3.118876   2.597257   3.787449   3.127780   3.797229
    14  H    2.568067   3.144609   3.779957   3.763193   4.335808
    15  H    2.540725   3.703745   3.056243   3.601720   3.633160
    16  H    3.056190   3.703732   2.540713   2.973356   2.479806
                   11         12         13         14         15
    11  H    0.000000
    12  H    3.127890   0.000000
    13  H    2.602396   1.780695   0.000000
    14  H    3.797241   1.773327   1.770735   0.000000
    15  H    4.193010   2.973253   3.653703   2.479817   0.000000
    16  H    3.653713   3.601704   4.193011   3.633179   1.626100
                   16
    16  H    0.000000
 Stoichiometry    C4H11N
 Framework group  C1[X(C4H11N)]
 Deg. of freedom    42
 Full point group                 C1      NOp   1
 Largest Abelian subgroup         C1      NOp   1
 Largest concise Abelian subgroup C1      NOp   1
                         Standard orientation:                         
 ---------------------------------------------------------------------
 Center     Atomic      Atomic             Coordinates (Angstroms)
 Number     Number       Type             X           Y           Z
 ---------------------------------------------------------------------
      1          6           0        0.000000   -0.005064    0.015838
      2          6           0        0.000070    1.360023   -0.705185
      3          6           0        1.258758   -0.798894   -0.366607
      4          6           0       -1.258817   -0.798785   -0.366641
      5          7           0       -0.000013    0.134141    1.487738
      6          1           0       -0.887062    1.945377   -0.430934
      7          1           0        0.000073    1.246584   -1.796702
      8          1           0        0.887250    1.945302   -0.430924
      9          1           0        1.270365   -1.765324    0.147285
     10          1           0        2.167893   -0.253193   -0.082000
     11          1           0        1.301197   -0.973950   -1.447598
     12          1           0       -1.270555   -1.765180    0.147314
     13          1           0       -1.301199   -0.973908   -1.447622
     14          1           0       -2.167915   -0.252968   -0.082136
     15          1           0       -0.813060    0.682307    1.772350
     16          1           0        0.813040    0.682287    1.772371
 ---------------------------------------------------------------------
 Rotational constants (GHZ):      4.5695267      4.5466221      4.4480796

 **********************************************************************

            Population analysis using the SCF density.

 **********************************************************************

 Orbital symmetries:
       Occupied  (A) (A) (A) (A) (A) (A) (A) (A) (A) (A) (A) (A)
                 (A) (A) (A) (A) (A) (A) (A) (A) (A)
       Virtual   (A) (A) (A) (A) (A) (A) (A) (A) (A) (A) (A) (A)
                 (A) (A) (A) (A) (A) (A) (A) (A) (A) (A) (A) (A)
                 (A) (A) (A) (A) (A) (A) (A) (A) (A) (A) (A) (A)
                 (A) (A) (A) (A) (A) (A) (A) (A) (A) (A) (A) (A)
                 (A) (A) (A) (A) (A) (A) (A) (A) (A) (A) (A) (A)
                 (A) (A) (A) (A) (A) (A) (A) (A) (A) (A) (A) (A)
                 (A) (A) (A) (A)
 The electronic state is 1-A.
 Alpha  occ. eigenvalues --  -14.30428 -10.21604 -10.17073 -10.16747 -10.16746
 Alpha  occ. eigenvalues --   -0.88276  -0.75550  -0.68143  -0.68104  -0.54410
 Alpha  occ. eigenvalues --   -0.47723  -0.45641  -0.43367  -0.41296  -0.38857
 Alpha  occ. eigenvalues --   -0.37258  -0.36036  -0.35306  -0.32846  -0.32213
 Alpha  occ. eigenvalues --   -0.22942
 Alpha virt. eigenvalues --    0.06843   0.12771   0.13023   0.13983   0.15883
 Alpha virt. eigenvalues --    0.16478   0.16876   0.18164   0.19934   0.21859
 Alpha virt. eigenvalues --    0.22147   0.22640   0.25312   0.25365   0.26849
 Alpha virt. eigenvalues --    0.51138   0.51153   0.54477   0.54502   0.56439
 Alpha virt. eigenvalues --    0.62017   0.67064   0.67844   0.69194   0.72795
 Alpha virt. eigenvalues --    0.74417   0.77149   0.86634   0.86664   0.88833
 Alpha virt. eigenvalues --    0.89940   0.90375   0.91123   0.91584   0.93869
 Alpha virt. eigenvalues --    0.94487   0.95472   0.98033   0.99199   0.99919
 Alpha virt. eigenvalues --    1.02285   1.02704   1.33912   1.39893   1.42683
 Alpha virt. eigenvalues --    1.51909   1.52181   1.70439   1.73215   1.73704
 Alpha virt. eigenvalues --    1.74774   1.85571   1.86759   1.90332   2.03973
 Alpha virt. eigenvalues --    2.09058   2.10894   2.13894   2.17101   2.20506
 Alpha virt. eigenvalues --    2.24698   2.24987   2.26871   2.27099   2.30426
 Alpha virt. eigenvalues --    2.39110   2.58162   2.62840   2.71348   2.71893
 Alpha virt. eigenvalues --    2.78097   3.80393   4.19377   4.30418   4.31664
 Alpha virt. eigenvalues --    4.64479
          Condensed to atoms (all electrons):
              1          2          3          4          5          6
     1  C    4.622126   0.385591   0.389702   0.389703   0.339794  -0.028579
     2  C    0.385591   5.214115  -0.072554  -0.072552  -0.073649   0.360996
     3  C    0.389702  -0.072554   5.150556  -0.055100  -0.069159   0.005821
     4  C    0.389703  -0.072552  -0.055100   5.150558  -0.069158  -0.005137
     5  N    0.339794  -0.073649  -0.069159  -0.069158   6.973699  -0.001615
     6  H   -0.028579   0.360996   0.005821  -0.005137  -0.001615   0.588750
     7  H   -0.023186   0.344707  -0.001804  -0.001805   0.005529  -0.028459
     8  H   -0.028579   0.360997  -0.005137   0.005821  -0.001615  -0.031468
     9  H   -0.025997   0.006193   0.365122  -0.006413   0.001800  -0.000202
    10  H   -0.028076  -0.006172   0.363977   0.005701  -0.004117  -0.000062
    11  H   -0.028226  -0.000929   0.363404  -0.005171   0.004628  -0.000050
    12  H   -0.025997   0.006193  -0.006413   0.365121   0.001801  -0.000090
    13  H   -0.028226  -0.000929  -0.005172   0.363406   0.004628  -0.000126
    14  H   -0.028077  -0.006173   0.005701   0.363977  -0.004117   0.004204
    15  H   -0.034663  -0.003143   0.008106  -0.006361   0.298856   0.004687
    16  H   -0.034663  -0.003144  -0.006360   0.008106   0.298856  -0.000198
              7          8          9         10         11         12
     1  C   -0.023186  -0.028579  -0.025997  -0.028076  -0.028226  -0.025997
     2  C    0.344707   0.360997   0.006193  -0.006172  -0.000929   0.006193
     3  C   -0.001804  -0.005137   0.365122   0.363977   0.363404  -0.006413
     4  C   -0.001805   0.005821  -0.006413   0.005701  -0.005171   0.365121
     5  N    0.005529  -0.001615   0.001800  -0.004117   0.004628   0.001801
     6  H   -0.028459  -0.031468  -0.000202  -0.000062  -0.000050  -0.000090
     7  H    0.592435  -0.028459  -0.000151   0.000121   0.001486  -0.000151
     8  H   -0.028459   0.588749  -0.000090   0.004203  -0.000126  -0.000202
     9  H   -0.000151  -0.000090   0.557330  -0.030097  -0.027301   0.004523
    10  H    0.000121   0.004203  -0.030097   0.590728  -0.030891  -0.000066
    11  H    0.001486  -0.000126  -0.027301  -0.030891   0.583021   0.000155
    12  H   -0.000151  -0.000202   0.004523  -0.000066   0.000155   0.557329
    13  H    0.001486  -0.000050   0.000155  -0.000047   0.003384  -0.027301
    14  H    0.000121  -0.000062  -0.000066  -0.000204  -0.000047  -0.030097
    15  H    0.000008  -0.000198  -0.000149  -0.000110  -0.000269  -0.000489
    16  H    0.000008   0.004687  -0.000489   0.004881  -0.000234  -0.000149
             13         14         15         16
     1  C   -0.028226  -0.028077  -0.034663  -0.034663
     2  C   -0.000929  -0.006173  -0.003143  -0.003144
     3  C   -0.005172   0.005701   0.008106  -0.006360
     4  C    0.363406   0.363977  -0.006361   0.008106
     5  N    0.004628  -0.004117   0.298856   0.298856
     6  H   -0.000126   0.004204   0.004687  -0.000198
     7  H    0.001486   0.000121   0.000008   0.000008
     8  H   -0.000050  -0.000062  -0.000198   0.004687
     9  H    0.000155  -0.000066  -0.000149  -0.000489
    10  H   -0.000047  -0.000204  -0.000110   0.004881
    11  H    0.003384  -0.000047  -0.000269  -0.000234
    12  H   -0.027301  -0.030097  -0.000489  -0.000149
    13  H    0.583017  -0.030891  -0.000234  -0.000269
    14  H   -0.030891   0.590728   0.004881  -0.000110
    15  H   -0.000234   0.004881   0.475502  -0.032478
    16  H   -0.000269  -0.000110  -0.032478   0.475501
 Mulliken atomic charges:
              1
     1  C    0.187351
     2  C   -0.439547
     3  C   -0.430691
     4  C   -0.430696
     5  N   -0.706160
     6  H    0.131528
     7  H    0.138116
     8  H    0.131528
     9  H    0.155831
    10  H    0.130230
    11  H    0.137167
    12  H    0.155832
    13  H    0.137169
    14  H    0.130230
    15  H    0.286055
    16  H    0.286055
 Sum of Mulliken atomic charges =   0.00000
 Mulliken charges with hydrogens summed into heavy atoms:
              1
     1  C    0.187351
     2  C   -0.038375
     3  C   -0.007462
     4  C   -0.007463
     5  N   -0.134050
 Sum of Mulliken charges with hydrogens summed into heavy atoms =   0.00000
 Electronic spatial extent (au):  <R**2>=            466.0889
 Charge=              0.0000 electrons
 Dipole moment (field-independent basis, Debye):
    X=              0.0000    Y=              1.1869    Z=             -0.4737  Tot=              1.2780
 Quadrupole moment (field-independent basis, Debye-Ang):
   XX=            -32.8528   YY=            -33.8887   ZZ=            -34.9841
   XY=              0.0000   XZ=              0.0001   YZ=              3.0425
 Traceless Quadrupole moment (field-independent basis, Debye-Ang):
   XX=              1.0557   YY=              0.0198   ZZ=             -1.0756
   XY=              0.0000   XZ=              0.0001   YZ=              3.0425
 Octapole moment (field-independent basis, Debye-Ang**2):
  XXX=              0.0001  YYY=             -0.8134  ZZZ=             -0.4245  XYY=             -0.0003
  XXY=              2.7064  XXZ=              4.4721  XZZ=              0.0002  YZZ=              5.5821
  YYZ=              3.0887  XYZ=              0.0000
 Hexadecapole moment (field-independent basis, Debye-Ang**3):
 XXXX=           -219.4639 YYYY=           -217.1878 ZZZZ=           -192.4598 XXXY=             -0.0001
 XXXZ=              0.0002 YYYX=              0.0000 YYYZ=              2.5799 ZZZX=              0.0002
 ZZZY=             15.0207 XXYY=            -71.9070 XXZZ=            -65.6240 YYZZ=            -68.0439
 XXYZ=              2.5813 YYXZ=             -0.0001 ZZXY=              0.0000
 N-N= 1.990595444122D+02 E-N=-8.929418510453D+02  KE= 2.116742899340D+02

 Test job not archived.
 1\1\GINC-TERMINUS\FOpt\RB3LYP\6-31G(d)\C4H11N1\FRODOX\04-Jan-2018\0\\#
 B3LYP/6-31G* fopt test\\NeoConformation/tert-butylamine.xyz\\0,1\C,-0.
 0145501576,0.0957821196,0.0907670749\C,1.2370683419,-0.4185929441,-0.6
 523411543\C,-0.6384076858,-1.0415322183,0.9143081574\C,-1.0380552098,0
 .6359491904,-0.9199552385\N,0.2979185216,1.1954178141,1.0283337598\H,1
 .7026787414,0.3869050102,-1.2347813504\H,0.9953446411,-1.2342184885,-1
 .3455956189\H,1.9843382279,-0.7953442501,0.0579434401\H,-1.5222440603,
 -0.6825811049,1.4511457078\H,0.0747984738,-1.4258727213,1.6552112214\H
 ,-0.9325210258,-1.8786338929,0.2710777573\H,-1.9255566556,1.0105027518
 ,-0.4000911268\H,-1.3457007785,-0.1446289691,-1.6249637555\H,-0.613454
 2915,1.4630554851,-1.5038447439\H,0.7400857166,1.9586430333,0.51402875
 84\H,0.9982672004,0.8751591847,1.6987671112\\Version=EM64L-G09RevB.01\
 State=1-A\HF=-213.8031106\RMSD=4.283e-09\RMSF=3.888e-05\Dipole=0.43535
 95,-0.131022,-0.2147031\Quadrupole=0.552803,-0.0387033,-0.5140997,1.50
 31408,1.4252763,-1.0807706\PG=C01 [X(C4H11N1)]\\@


 CHRISTMAS IS ON TOP OF A STEEP HILL.
 THE CLOSER YOU GET, THE STEEPER THE HILL IS.
          -- LINUS, OF PEANUTS
 Job cpu time:  0 days  0 hours  1 minutes 21.6 seconds.
 File lengths (MBytes):  RWF=      9 Int=      0 D2E=      0 Chk=      2 Scr=      1
 Normal termination of Gaussian 09 at Thu Jan  4 15:11:23 2018.
