 Entering Gaussian System, Link 0=g09
 Input=tert-butylamine.inp
 Output=tert-butylamine.log
 Initial command:
 /usr/local/g09/l1.exe /home/g09scr/Gau-5232.inp -scrdir=/home/g09scr/
 Entering Link 1 = /usr/local/g09/l1.exe PID=      5234.
  
 Copyright (c) 1988,1990,1992,1993,1995,1998,2003,2009,2010,
            Gaussian, Inc.  All Rights Reserved.
  
 This is part of the Gaussian(R) 09 program.  It is based on
 the Gaussian(R) 03 system (copyright 2003, Gaussian, Inc.),
 the Gaussian(R) 98 system (copyright 1998, Gaussian, Inc.),
 the Gaussian(R) 94 system (copyright 1995, Gaussian, Inc.),
 the Gaussian 92(TM) system (copyright 1992, Gaussian, Inc.),
 the Gaussian 90(TM) system (copyright 1990, Gaussian, Inc.),
 the Gaussian 88(TM) system (copyright 1988, Gaussian, Inc.),
 the Gaussian 86(TM) system (copyright 1986, Carnegie Mellon
 University), and the Gaussian 82(TM) system (copyright 1983,
 Carnegie Mellon University). Gaussian is a federally registered
 trademark of Gaussian, Inc.
  
 This software contains proprietary and confidential information,
 including trade secrets, belonging to Gaussian, Inc.
  
 This software is provided under written license and may be
 used, copied, transmitted, or stored only in accord with that
 written license.
  
 The following legend is applicable only to US Government
 contracts under FAR:
  
                    RESTRICTED RIGHTS LEGEND
  
 Use, reproduction and disclosure by the US Government is
 subject to restrictions as set forth in subparagraphs (a)
 and (c) of the Commercial Computer Software - Restricted
 Rights clause in FAR 52.227-19.
  
 Gaussian, Inc.
 340 Quinnipiac St., Bldg. 40, Wallingford CT 06492
  
  
 ---------------------------------------------------------------
 Warning -- This program may not be used in any manner that
 competes with the business of Gaussian, Inc. or will provide
 assistance to any competitor of Gaussian, Inc.  The licensee
 of this program is prohibited from giving any competitor of
 Gaussian, Inc. access to this program.  By using this program,
 the user acknowledges that Gaussian, Inc. is engaged in the
 business of creating and licensing software in the field of
 computational chemistry and represents and warrants to the
 licensee that it is not a competitor of Gaussian, Inc. and that
 it will not use this program in any manner prohibited above.
 ---------------------------------------------------------------
  

 Cite this work as:
 Gaussian 09, Revision B.01,
 M. J. Frisch, G. W. Trucks, H. B. Schlegel, G. E. Scuseria, 
 M. A. Robb, J. R. Cheeseman, G. Scalmani, V. Barone, B. Mennucci, 
 G. A. Petersson, H. Nakatsuji, M. Caricato, X. Li, H. P. Hratchian, 
 A. F. Izmaylov, J. Bloino, G. Zheng, J. L. Sonnenberg, M. Hada, 
 M. Ehara, K. Toyota, R. Fukuda, J. Hasegawa, M. Ishida, T. Nakajima, 
 Y. Honda, O. Kitao, H. Nakai, T. Vreven, J. A. Montgomery, Jr., 
 J. E. Peralta, F. Ogliaro, M. Bearpark, J. J. Heyd, E. Brothers, 
 K. N. Kudin, V. N. Staroverov, T. Keith, R. Kobayashi, J. Normand, 
 K. Raghavachari, A. Rendell, J. C. Burant, S. S. Iyengar, J. Tomasi, 
 M. Cossi, N. Rega, J. M. Millam, M. Klene, J. E. Knox, J. B. Cross, 
 V. Bakken, C. Adamo, J. Jaramillo, R. Gomperts, R. E. Stratmann, 
 O. Yazyev, A. J. Austin, R. Cammi, C. Pomelli, J. W. Ochterski, 
 R. L. Martin, K. Morokuma, V. G. Zakrzewski, G. A. Voth, 
 P. Salvador, J. J. Dannenberg, S. Dapprich, A. D. Daniels, 
 O. Farkas, J. B. Foresman, J. V. Ortiz, J. Cioslowski, 
 and D. J. Fox, Gaussian, Inc., Wallingford CT, 2010.
 
 ******************************************
 Gaussian 09:  EM64L-G09RevB.01 12-Aug-2010
                22-Jan-2018 
 ******************************************
 %nproc=4
 Will use up to    4 processors via shared memory.
 %mem=60gb
 ----------------------------
 #B3LYP/6-31G* fopt test freq
 ----------------------------
 1/14=-1,18=20,19=15,26=3,38=1/1,3;
 2/9=110,12=2,14=103,17=6,18=5,40=1/2;
 3/5=1,6=6,7=1,11=2,16=1,25=1,30=1,71=1,74=-5/1,2,3;
 4//1;
 5/5=2,38=5/2;
 6/7=2,8=2,9=2,10=2,28=1/1;
 7//1,2,3,16;
 1/14=-1,18=20,19=15/3(2);
 2/9=110/2;
 99//99;
 2/9=110/2;
 3/5=1,6=6,7=1,11=2,16=1,25=1,30=1,71=1,74=-5/1,2,3;
 4/5=5,16=3/1;
 5/5=2,38=5/2;
 7//1,2,3,16;
 1/14=-1,18=20,19=15/3(-5);
 2/9=110/2;
 6/7=2,8=2,9=2,10=2,19=2,28=1/1;
 99/9=1/99;
 -----------------------------------
 NeoConformation/tert-butylamine.xyz
 -----------------------------------
 Symbolic Z-matrix:
 Charge =  0 Multiplicity = 1
 C                    -0.00925   0.10916   0.10184 
 C                     1.22767  -0.4097   -0.64234 
 C                    -0.63115  -1.0354    0.90574 
 C                    -1.02795   0.62998  -0.91501 
 N                     0.33417   1.22067   1.04363 
 H                     1.70333   0.37767  -1.24301 
 H                     0.9602   -1.22415  -1.32859 
 H                     1.98517  -0.80356   0.04911 
 H                    -1.52267  -0.70611   1.45593 
 H                     0.07447  -1.45355   1.63671 
 H                    -0.93796  -1.8553    0.24248 
 H                    -1.93155   1.01381  -0.42293 
 H                    -1.34043  -0.17109  -1.59834 
 H                    -0.61494   1.44117  -1.5302 
 H                     0.73646   1.97587   0.52903 
 H                     0.99444   0.89054   1.71596 
 

 GradGradGradGradGradGradGradGradGradGradGradGradGradGradGradGradGradGrad
 Berny optimization.
 Initialization pass.
                           ----------------------------
                           !    Initial Parameters    !
                           ! (Angstroms and Degrees)  !
 --------------------------                            --------------------------
 ! Name  Definition              Value          Derivative Info.                !
 --------------------------------------------------------------------------------
 ! R1    R(1,2)                  1.5339         estimate D2E/DX2                !
 ! R2    R(1,3)                  1.5307         estimate D2E/DX2                !
 ! R3    R(1,4)                  1.5307         estimate D2E/DX2                !
 ! R4    R(1,5)                  1.4968         estimate D2E/DX2                !
 ! R5    R(2,6)                  1.0986         estimate D2E/DX2                !
 ! R6    R(2,7)                  1.0981         estimate D2E/DX2                !
 ! R7    R(2,8)                  1.0987         estimate D2E/DX2                !
 ! R8    R(3,9)                  1.0982         estimate D2E/DX2                !
 ! R9    R(3,10)                 1.0987         estimate D2E/DX2                !
 ! R10   R(3,11)                 1.0983         estimate D2E/DX2                !
 ! R11   R(4,12)                 1.0982         estimate D2E/DX2                !
 ! R12   R(4,13)                 1.0983         estimate D2E/DX2                !
 ! R13   R(4,14)                 1.0987         estimate D2E/DX2                !
 ! R14   R(5,15)                 0.9985         estimate D2E/DX2                !
 ! R15   R(5,16)                 0.9985         estimate D2E/DX2                !
 ! A1    A(2,1,3)              109.2372         estimate D2E/DX2                !
 ! A2    A(2,1,4)              109.2359         estimate D2E/DX2                !
 ! A3    A(2,1,5)              111.8038         estimate D2E/DX2                !
 ! A4    A(3,1,4)              109.4459         estimate D2E/DX2                !
 ! A5    A(3,1,5)              108.5442         estimate D2E/DX2                !
 ! A6    A(4,1,5)              108.5429         estimate D2E/DX2                !
 ! A7    A(1,2,6)              111.8358         estimate D2E/DX2                !
 ! A8    A(1,2,7)              110.9563         estimate D2E/DX2                !
 ! A9    A(1,2,8)              111.8332         estimate D2E/DX2                !
 ! A10   A(6,2,7)              107.1773         estimate D2E/DX2                !
 ! A11   A(6,2,8)              107.6083         estimate D2E/DX2                !
 ! A12   A(7,2,8)              107.1795         estimate D2E/DX2                !
 ! A13   A(1,3,9)              111.6383         estimate D2E/DX2                !
 ! A14   A(1,3,10)             111.905          estimate D2E/DX2                !
 ! A15   A(1,3,11)             110.7649         estimate D2E/DX2                !
 ! A16   A(9,3,10)             107.5892         estimate D2E/DX2                !
 ! A17   A(9,3,11)             107.4348         estimate D2E/DX2                !
 ! A18   A(10,3,11)            107.282          estimate D2E/DX2                !
 ! A19   A(1,4,12)             111.6454         estimate D2E/DX2                !
 ! A20   A(1,4,13)             110.762          estimate D2E/DX2                !
 ! A21   A(1,4,14)             111.9019         estimate D2E/DX2                !
 ! A22   A(12,4,13)            107.4343         estimate D2E/DX2                !
 ! A23   A(12,4,14)            107.5874         estimate D2E/DX2                !
 ! A24   A(13,4,14)            107.2832         estimate D2E/DX2                !
 ! A25   A(1,5,15)             109.2578         estimate D2E/DX2                !
 ! A26   A(1,5,16)             109.2611         estimate D2E/DX2                !
 ! A27   A(15,5,16)            109.3098         estimate D2E/DX2                !
 ! D1    D(3,1,2,6)            179.4392         estimate D2E/DX2                !
 ! D2    D(3,1,2,7)             59.8252         estimate D2E/DX2                !
 ! D3    D(3,1,2,8)            -59.7898         estimate D2E/DX2                !
 ! D4    D(4,1,2,6)             59.7548         estimate D2E/DX2                !
 ! D5    D(4,1,2,7)            -59.8592         estimate D2E/DX2                !
 ! D6    D(4,1,2,8)           -179.4742         estimate D2E/DX2                !
 ! D7    D(5,1,2,6)            -60.4018         estimate D2E/DX2                !
 ! D8    D(5,1,2,7)            179.9842         estimate D2E/DX2                !
 ! D9    D(5,1,2,8)             60.3692         estimate D2E/DX2                !
 ! D10   D(2,1,3,9)            179.9932         estimate D2E/DX2                !
 ! D11   D(2,1,3,10)            59.3354         estimate D2E/DX2                !
 ! D12   D(2,1,3,11)           -60.3276         estimate D2E/DX2                !
 ! D13   D(4,1,3,9)            -60.452          estimate D2E/DX2                !
 ! D14   D(4,1,3,10)           178.8902         estimate D2E/DX2                !
 ! D15   D(4,1,3,11)            59.2272         estimate D2E/DX2                !
 ! D16   D(5,1,3,9)             57.8525         estimate D2E/DX2                !
 ! D17   D(5,1,3,10)           -62.8054         estimate D2E/DX2                !
 ! D18   D(5,1,3,11)           177.5316         estimate D2E/DX2                !
 ! D19   D(2,1,4,12)          -179.9065         estimate D2E/DX2                !
 ! D20   D(2,1,4,13)            60.4122         estimate D2E/DX2                !
 ! D21   D(2,1,4,14)           -59.2482         estimate D2E/DX2                !
 ! D22   D(3,1,4,12)            60.5379         estimate D2E/DX2                !
 ! D23   D(3,1,4,13)           -59.1434         estimate D2E/DX2                !
 ! D24   D(3,1,4,14)          -178.8038         estimate D2E/DX2                !
 ! D25   D(5,1,4,12)           -57.7673         estimate D2E/DX2                !
 ! D26   D(5,1,4,13)          -177.4486         estimate D2E/DX2                !
 ! D27   D(5,1,4,14)            62.891          estimate D2E/DX2                !
 ! D28   D(2,1,5,15)            59.7482         estimate D2E/DX2                !
 ! D29   D(2,1,5,16)           -59.798          estimate D2E/DX2                !
 ! D30   D(3,1,5,15)          -179.6879         estimate D2E/DX2                !
 ! D31   D(3,1,5,16)            60.7658         estimate D2E/DX2                !
 ! D32   D(4,1,5,15)           -60.8132         estimate D2E/DX2                !
 ! D33   D(4,1,5,16)           179.6405         estimate D2E/DX2                !
 --------------------------------------------------------------------------------
 Trust Radius=3.00D-01 FncErr=1.00D-07 GrdErr=1.00D-06
 Number of steps in this run=     85 maximum allowed number of steps=    100.
 GradGradGradGradGradGradGradGradGradGradGradGradGradGradGradGradGradGrad

                          Input orientation:                          
 ---------------------------------------------------------------------
 Center     Atomic      Atomic             Coordinates (Angstroms)
 Number     Number       Type             X           Y           Z
 ---------------------------------------------------------------------
      1          6           0       -0.009250    0.109160    0.101840
      2          6           0        1.227670   -0.409700   -0.642340
      3          6           0       -0.631150   -1.035400    0.905740
      4          6           0       -1.027950    0.629980   -0.915010
      5          7           0        0.334170    1.220670    1.043630
      6          1           0        1.703330    0.377670   -1.243010
      7          1           0        0.960200   -1.224150   -1.328590
      8          1           0        1.985170   -0.803560    0.049110
      9          1           0       -1.522670   -0.706110    1.455930
     10          1           0        0.074470   -1.453550    1.636710
     11          1           0       -0.937960   -1.855300    0.242480
     12          1           0       -1.931550    1.013810   -0.422930
     13          1           0       -1.340430   -0.171090   -1.598340
     14          1           0       -0.614940    1.441170   -1.530200
     15          1           0        0.736460    1.975870    0.529030
     16          1           0        0.994440    0.890540    1.715960
 ---------------------------------------------------------------------
                    Distance matrix (angstroms):
                    1          2          3          4          5
     1  C    0.000000
     2  C    1.533946   0.000000
     3  C    1.530697   2.498652   0.000000
     4  C    1.530682   2.498621   2.499214   0.000000
     5  N    1.496783   2.509770   2.457785   2.457754   0.000000
     6  H    2.194003   1.098639   3.473282   2.762451   2.795348
     7  H    2.182585   1.098093   2.749591   2.749834   3.463594
     8  H    2.193980   1.098651   2.762733   3.473249   2.795063
     9  H    2.188302   3.472026   1.098157   2.766088   2.707458
    10  H    2.192008   2.759268   1.098666   3.473860   2.751480
    11  H    2.177472   2.750022   1.098309   2.743082   3.423704
    12  H    2.188381   3.472059   2.766887   1.098163   2.706857
    13  H    2.177428   2.750638   2.742358   1.098315   3.423636
    14  H    2.191955   2.758483   3.473826   1.098665   2.752096
    15  H    2.055038   2.702654   3.328666   2.647605   0.998488
    16  H    2.055075   2.703072   2.647309   3.328657   0.998484
                    6          7          8          9         10
     6  H    0.000000
     7  H    1.767878   0.000000
     8  H    1.773221   1.767913   0.000000
     9  H    4.343493   3.766505   3.780685   0.000000
    10  H    3.781447   3.103248   2.567827   1.772626   0.000000
    11  H    3.764206   2.543545   3.112593   1.770589   1.769264
    12  H    3.780153   3.767082   4.343541   2.579811   3.788680
    13  H    3.113177   2.544523   3.764801   3.106127   3.756620
    14  H    2.566688   3.102522   3.780688   3.788371   4.345573
    15  H    2.574725   3.706877   3.084612   3.627096   3.664165
    16  H    3.085622   3.707070   2.574861   2.992115   2.519401
                   11         12         13         14         15
    11  H    0.000000
    12  H    3.108341   0.000000
    13  H    2.527284   1.770593   0.000000
    14  H    3.756787   1.772610   1.769283   0.000000
    15  H    4.190902   2.991666   3.667235   2.520439   0.000000
    16  H    3.666736   3.626495   4.190854   3.664813   1.628895
                   16
    16  H    0.000000
 Stoichiometry    C4H11N
 Framework group  C1[X(C4H11N)]
 Deg. of freedom    42
 Full point group                 C1      NOp   1
 Largest Abelian subgroup         C1      NOp   1
 Largest concise Abelian subgroup C1      NOp   1
                         Standard orientation:                         
 ---------------------------------------------------------------------
 Center     Atomic      Atomic             Coordinates (Angstroms)
 Number     Number       Type             X           Y           Z
 ---------------------------------------------------------------------
      1          6           0        0.000005   -0.000253    0.026568
      2          6           0       -0.001303    1.091354   -1.051107
      3          6           0        1.250358   -0.868106   -0.136163
      4          6           0       -1.248855   -0.870358   -0.135461
      5          7           0       -0.000152    0.580453    1.406112
      6          1           0       -0.888622    1.735207   -0.979498
      7          1           0       -0.000890    0.650404   -2.056776
      8          1           0        0.884598    1.737186   -0.979588
      9          1           0        1.291145   -1.665034    0.618285
     10          1           0        2.173056   -0.278485   -0.046485
     11          1           0        1.264948   -1.348722   -1.123623
     12          1           0       -1.288665   -1.666475    0.619902
     13          1           0       -1.262334   -1.352154   -1.122369
     14          1           0       -2.172516   -0.282099   -0.046771
     15          1           0       -0.814893    1.145158    1.525619
     16          1           0        0.814001    1.146025    1.525497
 ---------------------------------------------------------------------
 Rotational constants (GHZ):      4.5421826      4.5179517      4.4972340
 Standard basis: 6-31G(d) (6D, 7F)
 There are    97 symmetry adapted basis functions of A   symmetry.
 Integral buffers will be    131072 words long.
 Raffenetti 2 integral format.
 Two-electron integral symmetry is turned on.
    97 basis functions,   184 primitive gaussians,    97 cartesian basis functions
    21 alpha electrons       21 beta electrons
       nuclear repulsion energy       199.1069648662 Hartrees.
 NAtoms=   16 NActive=   16 NUniq=   16 SFac= 1.00D+00 NAtFMM=   50 NAOKFM=F Big=F
 One-electron integrals computed using PRISM.
 NBasis=    97 RedAO= T  NBF=    97
 NBsUse=    97 1.00D-06 NBFU=    97
 Harris functional with IExCor=  402 diagonalized for initial guess.
 ExpMin= 1.61D-01 ExpMax= 4.17D+03 ExpMxC= 6.27D+02 IAcc=1 IRadAn=         1 AccDes= 0.00D+00
 HarFok:  IExCor=  402 AccDes= 0.00D+00 IRadAn=         1 IDoV= 1
 ScaDFX=  1.000000  1.000000  1.000000  1.000000
 FoFCou: FMM=F IPFlag=           0 FMFlag=      100000 FMFlg1=           0
         NFxFlg=           0 DoJE=T BraDBF=F KetDBF=T FulRan=T
         Omega=  0.000000  0.000000  1.000000  0.000000  0.000000 ICntrl=     500 IOpCl=  0
         NMat0=    1 NMatS0=    1 NMatT0=    0 NMatD0=    1 NMtDS0=    0 NMtDT0=    0
         I1Cent=           4 NGrid=           0.
 Petite list used in FoFCou.
 Initial guess orbital symmetries:
       Occupied  (A) (A) (A) (A) (A) (A) (A) (A) (A) (A) (A) (A)
                 (A) (A) (A) (A) (A) (A) (A) (A) (A)
       Virtual   (A) (A) (A) (A) (A) (A) (A) (A) (A) (A) (A) (A)
                 (A) (A) (A) (A) (A) (A) (A) (A) (A) (A) (A) (A)
                 (A) (A) (A) (A) (A) (A) (A) (A) (A) (A) (A) (A)
                 (A) (A) (A) (A) (A) (A) (A) (A) (A) (A) (A) (A)
                 (A) (A) (A) (A) (A) (A) (A) (A) (A) (A) (A) (A)
                 (A) (A) (A) (A) (A) (A) (A) (A) (A) (A) (A) (A)
                 (A) (A) (A) (A)
 The electronic state of the initial guess is 1-A.
 Requested convergence on RMS density matrix=1.00D-08 within 128 cycles.
 Requested convergence on MAX density matrix=1.00D-06.
 Requested convergence on             energy=1.00D-06.
 No special actions if energy rises.
 Keep R1 ints in memory in canonical form, NReq=12396098.
 Integral accuracy reduced to 1.0D-05 until final iterations.
 Initial convergence to 1.0D-05 achieved.  Increase integral accuracy.
 SCF Done:  E(RB3LYP) =  -213.801401874     A.U. after   13 cycles
             Convg  =    0.7428D-08             -V/T =  2.0099

 **********************************************************************

            Population analysis using the SCF density.

 **********************************************************************

 Orbital symmetries:
       Occupied  (A) (A) (A) (A) (A) (A) (A) (A) (A) (A) (A) (A)
                 (A) (A) (A) (A) (A) (A) (A) (A) (A)
       Virtual   (A) (A) (A) (A) (A) (A) (A) (A) (A) (A) (A) (A)
                 (A) (A) (A) (A) (A) (A) (A) (A) (A) (A) (A) (A)
                 (A) (A) (A) (A) (A) (A) (A) (A) (A) (A) (A) (A)
                 (A) (A) (A) (A) (A) (A) (A) (A) (A) (A) (A) (A)
                 (A) (A) (A) (A) (A) (A) (A) (A) (A) (A) (A) (A)
                 (A) (A) (A) (A) (A) (A) (A) (A) (A) (A) (A) (A)
                 (A) (A) (A) (A)
 The electronic state is 1-A.
 Alpha  occ. eigenvalues --  -14.29900 -10.21653 -10.16973 -10.16835 -10.16834
 Alpha  occ. eigenvalues --   -0.88058  -0.76074  -0.68081  -0.68066  -0.54477
 Alpha  occ. eigenvalues --   -0.48403  -0.45682  -0.43323  -0.41578  -0.38645
 Alpha  occ. eigenvalues --   -0.37224  -0.35902  -0.35100  -0.32998  -0.32448
 Alpha  occ. eigenvalues --   -0.22552
 Alpha virt. eigenvalues --    0.07043   0.12573   0.13458   0.14092   0.15839
 Alpha virt. eigenvalues --    0.16338   0.16961   0.18414   0.20050   0.21925
 Alpha virt. eigenvalues --    0.22320   0.22561   0.25590   0.25613   0.26199
 Alpha virt. eigenvalues --    0.51336   0.51410   0.54174   0.54836   0.56337
 Alpha virt. eigenvalues --    0.61896   0.67466   0.68629   0.69671   0.72574
 Alpha virt. eigenvalues --    0.74208   0.76982   0.86778   0.87272   0.89458
 Alpha virt. eigenvalues --    0.90699   0.91075   0.91200   0.92770   0.93707
 Alpha virt. eigenvalues --    0.95008   0.95043   0.97670   0.99096   0.99187
 Alpha virt. eigenvalues --    1.02114   1.02806   1.33386   1.40818   1.42673
 Alpha virt. eigenvalues --    1.50862   1.51883   1.70280   1.73080   1.73912
 Alpha virt. eigenvalues --    1.74334   1.86599   1.87323   1.88436   2.06430
 Alpha virt. eigenvalues --    2.08779   2.11011   2.15025   2.15717   2.20685
 Alpha virt. eigenvalues --    2.24753   2.25026   2.26134   2.26589   2.30165
 Alpha virt. eigenvalues --    2.41455   2.59164   2.64277   2.71753   2.72241
 Alpha virt. eigenvalues --    2.77350   3.80456   4.20268   4.30429   4.31351
 Alpha virt. eigenvalues --    4.64640
          Condensed to atoms (all electrons):
              1          2          3          4          5          6
     1  C    4.605470   0.387713   0.390914   0.390900   0.343115  -0.027922
     2  C    0.387713   5.216837  -0.075044  -0.075058  -0.076058   0.361395
     3  C    0.390914  -0.075044   5.152097  -0.057022  -0.063310   0.005954
     4  C    0.390900  -0.075058  -0.057022   5.152172  -0.063358  -0.005269
     5  N    0.343115  -0.076058  -0.063310  -0.063358   6.957786  -0.001536
     6  H   -0.027922   0.361395   0.005954  -0.005269  -0.001536   0.588719
     7  H   -0.024802   0.343088  -0.002139  -0.002127   0.005824  -0.028935
     8  H   -0.027930   0.361392  -0.005258   0.005955  -0.001535  -0.031669
     9  H   -0.025192   0.006265   0.364422  -0.006076   0.001501  -0.000200
    10  H   -0.027843  -0.006263   0.363877   0.005779  -0.003696  -0.000052
    11  H   -0.028384  -0.001546   0.363968  -0.005861   0.004393  -0.000040
    12  H   -0.025171   0.006265  -0.006064   0.364395   0.001505  -0.000083
    13  H   -0.028396  -0.001529  -0.005872   0.363961   0.004395  -0.000122
    14  H   -0.027853  -0.006279   0.005780   0.363884  -0.003683   0.004231
    15  H   -0.033686  -0.002223   0.007414  -0.005628   0.306289   0.004160
    16  H   -0.033675  -0.002218  -0.005642   0.007416   0.306280  -0.000192
              7          8          9         10         11         12
     1  C   -0.024802  -0.027930  -0.025192  -0.027843  -0.028384  -0.025171
     2  C    0.343088   0.361392   0.006265  -0.006263  -0.001546   0.006265
     3  C   -0.002139  -0.005258   0.364422   0.363877   0.363968  -0.006064
     4  C   -0.002127   0.005955  -0.006076   0.005779  -0.005861   0.364395
     5  N    0.005824  -0.001535   0.001501  -0.003696   0.004393   0.001505
     6  H   -0.028935  -0.031669  -0.000200  -0.000052  -0.000040  -0.000083
     7  H    0.598721  -0.028926  -0.000159   0.000146   0.001729  -0.000160
     8  H   -0.028926   0.588724  -0.000083   0.004220  -0.000122  -0.000200
     9  H   -0.000159  -0.000083   0.560372  -0.030484  -0.028687   0.004185
    10  H    0.000146   0.004220  -0.030484   0.590283  -0.031020  -0.000068
    11  H    0.001729  -0.000122  -0.028687  -0.031020   0.584638   0.000154
    12  H   -0.000160  -0.000200   0.004185  -0.000068   0.000154   0.560348
    13  H    0.001722  -0.000041   0.000155  -0.000031   0.003880  -0.028679
    14  H    0.000146  -0.000052  -0.000067  -0.000201  -0.000032  -0.030487
    15  H   -0.000028  -0.000192  -0.000123  -0.000099  -0.000249  -0.000385
    16  H   -0.000028   0.004160  -0.000385   0.004418  -0.000245  -0.000123
             13         14         15         16
     1  C   -0.028396  -0.027853  -0.033686  -0.033675
     2  C   -0.001529  -0.006279  -0.002223  -0.002218
     3  C   -0.005872   0.005780   0.007414  -0.005642
     4  C    0.363961   0.363884  -0.005628   0.007416
     5  N    0.004395  -0.003683   0.306289   0.306280
     6  H   -0.000122   0.004231   0.004160  -0.000192
     7  H    0.001722   0.000146  -0.000028  -0.000028
     8  H   -0.000041  -0.000052  -0.000192   0.004160
     9  H    0.000155  -0.000067  -0.000123  -0.000385
    10  H   -0.000031  -0.000201  -0.000099   0.004418
    11  H    0.003880  -0.000032  -0.000249  -0.000245
    12  H   -0.028679  -0.030487  -0.000385  -0.000123
    13  H    0.584657  -0.031020  -0.000246  -0.000249
    14  H   -0.031020   0.590297   0.004407  -0.000099
    15  H   -0.000246   0.004407   0.459331  -0.031228
    16  H   -0.000249  -0.000099  -0.031228   0.459327
 Mulliken atomic charges:
              1
     1  C    0.192742
     2  C   -0.436736
     3  C   -0.434075
     4  C   -0.434064
     5  N   -0.717911
     6  H    0.131561
     7  H    0.135929
     8  H    0.131557
     9  H    0.154557
    10  H    0.131034
    11  H    0.137423
    12  H    0.154568
    13  H    0.137416
    14  H    0.131030
    15  H    0.292484
    16  H    0.292485
 Sum of Mulliken atomic charges =   0.00000
 Mulliken charges with hydrogens summed into heavy atoms:
              1
     1  C    0.192742
     2  C   -0.037690
     3  C   -0.011061
     4  C   -0.011050
     5  N   -0.132942
 Sum of Mulliken charges with hydrogens summed into heavy atoms =   0.00000
 Electronic spatial extent (au):  <R**2>=            466.1447
 Charge=              0.0000 electrons
 Dipole moment (field-independent basis, Debye):
    X=             -0.0005    Y=              0.9340    Z=             -0.7931  Tot=              1.2253
 Quadrupole moment (field-independent basis, Debye-Ang):
   XX=            -32.6472   YY=            -32.3089   ZZ=            -36.5821
   XY=              0.0000   XZ=             -0.0019   YZ=              2.2410
 Traceless Quadrupole moment (field-independent basis, Debye-Ang):
   XX=              1.1989   YY=              1.5371   ZZ=             -2.7360
   XY=              0.0000   XZ=             -0.0019   YZ=              2.2410
 Octapole moment (field-independent basis, Debye-Ang**2):
  XXX=             -0.0060  YYY=              2.9251  ZZZ=             -3.5729  XYY=              0.0044
  XXY=              3.8495  XXZ=              3.7539  XZZ=             -0.0015  YZZ=              2.4886
  YYZ=              5.0838  XYZ=              0.0001
 Hexadecapole moment (field-independent basis, Debye-Ang**3):
 XXXX=           -216.6376 YYYY=           -210.7757 ZZZZ=           -211.3706 XXXY=             -0.0043
 XXXZ=             -0.0020 YYYX=              0.0042 YYYZ=              6.2800 ZZZX=             -0.0120
 ZZZY=             11.6196 XXYY=            -69.3335 XXZZ=            -67.1791 YYZZ=            -62.5576
 XXYZ=              3.2834 YYXZ=              0.0001 ZZXY=             -0.0012
 N-N= 1.991069648662D+02 E-N=-8.930599255685D+02  KE= 2.117129076549D+02
 Calling FoFJK, ICntrl=      2127 FMM=F ISym2X=0 I1Cent= 0 IOpClX= 0 NMat=1 NMatS=1 NMatT=0.
 ***** Axes restored to original set *****
 -------------------------------------------------------------------
 Center     Atomic                   Forces (Hartrees/Bohr)
 Number     Number              X              Y              Z
 -------------------------------------------------------------------
      1        6           0.003778528    0.007423316    0.005969383
      2        6           0.004810362   -0.003701069   -0.004416063
      3        6          -0.004673147   -0.003528366    0.004374694
      4        6          -0.006199043    0.002860893   -0.002635991
      5        7          -0.030232313   -0.017071594   -0.009043497
      6        1          -0.001030635    0.000522908    0.001031847
      7        1           0.000805033   -0.000184390   -0.000344627
      8        1          -0.001111409    0.000836720    0.000672980
      9        1           0.002225268    0.001567579   -0.000988405
     10        1           0.000536361    0.001050314   -0.000548592
     11        1           0.001432802    0.000915851    0.000308794
     12        1           0.002682037   -0.000329334    0.001078494
     13        1           0.001486563    0.000711295    0.000529969
     14        1           0.000853730   -0.000300012    0.000928215
     15        1           0.010402801    0.012658842   -0.007252884
     16        1           0.014233062   -0.003432952    0.010335684
 -------------------------------------------------------------------
 Cartesian Forces:  Max     0.030232313 RMS     0.006815449

 GradGradGradGradGradGradGradGradGradGradGradGradGradGradGradGradGradGrad
 Berny optimization.
 Internal  Forces:  Max     0.017507913 RMS     0.003417009
 Search for a local minimum.
 Step number   1 out of a maximum of   85
 All quantities printed in internal units (Hartrees-Bohrs-Radians)
 Mixed Optimization -- RFO/linear search
 Second derivative matrix not updated -- first step.
 ITU=  0
     Eigenvalues ---    0.00317   0.00360   0.00360   0.00412   0.04036
     Eigenvalues ---    0.04875   0.05084   0.05328   0.05374   0.05374
     Eigenvalues ---    0.05453   0.05504   0.05504   0.05557   0.14850
     Eigenvalues ---    0.15234   0.16000   0.16000   0.16000   0.16000
     Eigenvalues ---    0.16000   0.16000   0.16000   0.16000   0.16000
     Eigenvalues ---    0.16000   0.16000   0.29062   0.29359   0.29361
     Eigenvalues ---    0.32717   0.33830   0.33830   0.33832   0.33833
     Eigenvalues ---    0.33869   0.33870   0.33886   0.33887   0.33894
     Eigenvalues ---    0.47955   0.47956
 RFO step:  Lambda=-2.91335245D-03 EMin= 3.16905523D-03
 Linear search not attempted -- first point.
 Iteration  1 RMS(Cart)=  0.02244458 RMS(Int)=  0.00035111
 Iteration  2 RMS(Cart)=  0.00039529 RMS(Int)=  0.00011284
 Iteration  3 RMS(Cart)=  0.00000010 RMS(Int)=  0.00011284
 Variable       Old X    -DE/DX   Delta X   Delta X   Delta X     New X
                                 (Linear)    (Quad)   (Total)
    R1        2.89874   0.00514   0.00000   0.01751   0.01751   2.91624
    R2        2.89260   0.00184   0.00000   0.00621   0.00621   2.89881
    R3        2.89257   0.00185   0.00000   0.00624   0.00624   2.89881
    R4        2.82851  -0.01086   0.00000  -0.03291  -0.03291   2.79560
    R5        2.07613  -0.00064   0.00000  -0.00187  -0.00187   2.07426
    R6        2.07509   0.00016   0.00000   0.00046   0.00046   2.07556
    R7        2.07615  -0.00064   0.00000  -0.00189  -0.00189   2.07426
    R8        2.07522  -0.00183   0.00000  -0.00536  -0.00536   2.06986
    R9        2.07618  -0.00042   0.00000  -0.00123  -0.00123   2.07495
   R10        2.07550  -0.00127   0.00000  -0.00372  -0.00372   2.07178
   R11        2.07523  -0.00184   0.00000  -0.00538  -0.00538   2.06985
   R12        2.07552  -0.00127   0.00000  -0.00373  -0.00373   2.07179
   R13        2.07618  -0.00042   0.00000  -0.00123  -0.00123   2.07494
   R14        1.88687   0.01750   0.00000   0.03628   0.03628   1.92315
   R15        1.88686   0.01751   0.00000   0.03629   0.03629   1.92315
    A1        1.90655   0.00025   0.00000   0.01325   0.01308   1.91963
    A2        1.90653   0.00025   0.00000   0.01326   0.01309   1.91962
    A3        1.95134   0.00138   0.00000   0.00786   0.00805   1.95939
    A4        1.91019   0.00153   0.00000   0.01223   0.01173   1.92192
    A5        1.89445  -0.00170   0.00000  -0.02340  -0.02338   1.87107
    A6        1.89443  -0.00169   0.00000  -0.02334  -0.02333   1.87110
    A7        1.95190  -0.00195   0.00000  -0.01387  -0.01396   1.93794
    A8        1.93655   0.00212   0.00000   0.01681   0.01687   1.95342
    A9        1.95186  -0.00194   0.00000  -0.01381  -0.01390   1.93796
   A10        1.87060   0.00028   0.00000   0.00527   0.00532   1.87592
   A11        1.87812   0.00136   0.00000   0.00146   0.00123   1.87935
   A12        1.87064   0.00028   0.00000   0.00523   0.00529   1.87593
   A13        1.94846  -0.00247   0.00000  -0.01520  -0.01528   1.93318
   A14        1.95311  -0.00134   0.00000  -0.01098  -0.01107   1.94205
   A15        1.93321  -0.00005   0.00000   0.00250   0.00253   1.93574
   A16        1.87779   0.00150   0.00000   0.00414   0.00396   1.88175
   A17        1.87509   0.00191   0.00000   0.01690   0.01694   1.89203
   A18        1.87242   0.00072   0.00000   0.00449   0.00449   1.87692
   A19        1.94858  -0.00249   0.00000  -0.01538  -0.01546   1.93312
   A20        1.93316  -0.00003   0.00000   0.00258   0.00260   1.93576
   A21        1.95306  -0.00133   0.00000  -0.01090  -0.01099   1.94207
   A22        1.87508   0.00191   0.00000   0.01692   0.01695   1.89203
   A23        1.87775   0.00151   0.00000   0.00418   0.00401   1.88176
   A24        1.87245   0.00072   0.00000   0.00446   0.00447   1.87692
   A25        1.90691   0.00130   0.00000  -0.00313  -0.00325   1.90366
   A26        1.90697   0.00129   0.00000  -0.00320  -0.00332   1.90365
   A27        1.90782  -0.00324   0.00000  -0.04244  -0.04270   1.86511
    D1        3.13180   0.00158   0.00000   0.02451   0.02442  -3.12696
    D2        1.04415   0.00108   0.00000   0.01570   0.01568   1.05983
    D3       -1.04353   0.00058   0.00000   0.00688   0.00695  -1.03658
    D4        1.04292  -0.00058   0.00000  -0.00630  -0.00636   1.03655
    D5       -1.04474  -0.00108   0.00000  -0.01512  -0.01510  -1.05984
    D6       -3.13242  -0.00157   0.00000  -0.02393  -0.02384   3.12693
    D7       -1.05421   0.00050   0.00000   0.00907   0.00899  -1.04522
    D8        3.14132   0.00000   0.00000   0.00025   0.00025   3.14157
    D9        1.05364  -0.00050   0.00000  -0.00856  -0.00848   1.04516
   D10        3.14147  -0.00064   0.00000  -0.01130  -0.01131   3.13016
   D11        1.03560   0.00010   0.00000   0.00175   0.00163   1.03723
   D12       -1.05292   0.00010   0.00000   0.00167   0.00160  -1.05132
   D13       -1.05509   0.00072   0.00000   0.02023   0.02036  -1.03473
   D14        3.12222   0.00146   0.00000   0.03327   0.03330  -3.12766
   D15        1.03371   0.00147   0.00000   0.03320   0.03327   1.06698
   D16        1.00972  -0.00143   0.00000  -0.01452  -0.01447   0.99524
   D17       -1.09616  -0.00069   0.00000  -0.00147  -0.00153  -1.09769
   D18        3.09851  -0.00069   0.00000  -0.00155  -0.00156   3.09695
   D19       -3.13996   0.00064   0.00000   0.01063   0.01065  -3.12931
   D20        1.05439  -0.00010   0.00000  -0.00228  -0.00221   1.05219
   D21       -1.03408  -0.00010   0.00000  -0.00243  -0.00231  -1.03639
   D22        1.05659  -0.00073   0.00000  -0.02088  -0.02102   1.03557
   D23       -1.03225  -0.00147   0.00000  -0.03380  -0.03387  -1.06612
   D24       -3.12072  -0.00147   0.00000  -0.03395  -0.03398   3.12849
   D25       -1.00823   0.00143   0.00000   0.01389   0.01384  -0.99438
   D26       -3.09706   0.00069   0.00000   0.00098   0.00099  -3.09607
   D27        1.09765   0.00069   0.00000   0.00083   0.00089   1.09854
   D28        1.04280  -0.00120   0.00000  -0.02745  -0.02738   1.01542
   D29       -1.04367   0.00120   0.00000   0.02800   0.02793  -1.01574
   D30       -3.13615  -0.00115   0.00000  -0.02153  -0.02167   3.12537
   D31        1.06056   0.00125   0.00000   0.03393   0.03364   1.09420
   D32       -1.06139  -0.00125   0.00000  -0.03343  -0.03314  -1.09453
   D33        3.13532   0.00115   0.00000   0.02203   0.02217  -3.12570
         Item               Value     Threshold  Converged?
 Maximum Force            0.017508     0.000450     NO 
 RMS     Force            0.003417     0.000300     NO 
 Maximum Displacement     0.070853     0.001800     NO 
 RMS     Displacement     0.022314     0.001200     NO 
 Predicted change in Energy=-1.488509D-03
 GradGradGradGradGradGradGradGradGradGradGradGradGradGradGradGradGradGrad

                          Input orientation:                          
 ---------------------------------------------------------------------
 Center     Atomic      Atomic             Coordinates (Angstroms)
 Number     Number       Type             X           Y           Z
 ---------------------------------------------------------------------
      1          6           0       -0.013921    0.095595    0.090441
      2          6           0        1.238182   -0.417392   -0.651568
      3          6           0       -0.636284   -1.038534    0.914773
      4          6           0       -1.035551    0.637223   -0.917536
      5          7           0        0.301495    1.195716    1.027873
      6          1           0        1.706338    0.385233   -1.235918
      7          1           0        0.997694   -1.233804   -1.345818
      8          1           0        1.987757   -0.795759    0.055410
      9          1           0       -1.520233   -0.684977    1.456403
     10          1           0        0.075324   -1.431198    1.653057
     11          1           0       -0.936396   -1.872291    0.269217
     12          1           0       -1.925045    1.016460   -0.403045
     13          1           0       -1.348266   -0.146676   -1.617309
     14          1           0       -0.613420    1.460041   -1.509489
     15          1           0        0.731538    1.959813    0.511243
     16          1           0        0.990798    0.870560    1.702277
 ---------------------------------------------------------------------
                    Distance matrix (angstroms):
                    1          2          3          4          5
     1  C    0.000000
     2  C    1.543210   0.000000
     3  C    1.533985   2.520490   0.000000
     4  C    1.533983   2.520479   2.514942   0.000000
     5  N    1.479370   2.509985   2.425716   2.425742   0.000000
     6  H    2.191439   1.097652   3.484317   2.771790   2.784819
     7  H    2.203067   1.098338   2.796120   2.796114   3.467228
     8  H    2.191450   1.097653   2.771829   3.484315   2.784805
     9  H    2.178100   3.481954   1.095322   2.760202   2.653175
    10  H    2.186512   2.773327   1.098014   3.481430   2.709740
    11  H    2.180710   2.773692   1.096339   2.777746   3.394201
    12  H    2.178053   3.481910   2.760534   1.095317   2.652761
    13  H    2.180729   2.774105   2.777367   1.096344   3.394218
    14  H    2.186524   2.772944   3.481444   1.098013   2.710193
    15  H    2.051364   2.694424   3.320220   2.629307   1.017687
    16  H    2.051353   2.694551   2.629107   3.320234   1.017687
                    6          7          8          9         10
     6  H    0.000000
     7  H    1.770744   0.000000
     8  H    1.772418   1.770748   0.000000
     9  H    4.336439   3.807048   3.779028   0.000000
    10  H    3.782301   3.143721   2.571703   1.772378   0.000000
    11  H    3.787596   2.599367   3.123349   1.777636   1.770072
    12  H    3.778765   3.807218   4.336397   2.552706   3.770950
    13  H    3.123938   2.599823   3.787921   3.125227   3.791029
    14  H    2.571251   3.143132   3.782019   3.770932   4.339969
    15  H    2.545998   3.703877   3.062523   3.599822   3.637762
    16  H    3.062765   3.703955   2.546118   2.964022   2.477621
                   11         12         13         14         15
    11  H    0.000000
    12  H    3.126378   0.000000
    13  H    2.589665   1.777637   0.000000
    14  H    3.791114   1.772383   1.770074   0.000000
    15  H    4.186359   2.963658   3.646041   2.478315   0.000000
    16  H    3.645678   3.599418   4.186363   3.638193   1.634702
                   16
    16  H    0.000000
 Stoichiometry    C4H11N
 Framework group  C1[X(C4H11N)]
 Deg. of freedom    42
 Full point group                 C1      NOp   1
 Largest Abelian subgroup         C1      NOp   1
 Largest concise Abelian subgroup C1      NOp   1
                         Standard orientation:                         
 ---------------------------------------------------------------------
 Center     Atomic      Atomic             Coordinates (Angstroms)
 Number     Number       Type             X           Y           Z
 ---------------------------------------------------------------------
      1          6           0       -0.000004   -0.005739    0.014628
      2          6           0       -0.000590    1.367521   -0.689398
      3          6           0        1.257644   -0.793517   -0.373752
      4          6           0       -1.257298   -0.794320   -0.373258
      5          7           0        0.000271    0.120054    1.488640
      6          1           0       -0.886944    1.952349   -0.411560
      7          1           0       -0.000770    1.267598   -1.783182
      8          1           0        0.885474    1.952949   -0.411900
      9          1           0        1.276751   -1.766720    0.128484
     10          1           0        2.170030   -0.251788   -0.091414
     11          1           0        1.295056   -0.961927   -1.456433
     12          1           0       -1.275954   -1.767167    0.129674
     13          1           0       -1.294608   -0.963523   -1.455824
     14          1           0       -2.169939   -0.252806   -0.091332
     15          1           0       -0.817104    0.653367    1.777018
     16          1           0        0.817598    0.653624    1.776676
 ---------------------------------------------------------------------
 Rotational constants (GHZ):      4.5738213      4.5529053      4.4503398
 Standard basis: 6-31G(d) (6D, 7F)
 There are    97 symmetry adapted basis functions of A   symmetry.
 Integral buffers will be    131072 words long.
 Raffenetti 2 integral format.
 Two-electron integral symmetry is turned on.
    97 basis functions,   184 primitive gaussians,    97 cartesian basis functions
    21 alpha electrons       21 beta electrons
       nuclear repulsion energy       199.1489930960 Hartrees.
 NAtoms=   16 NActive=   16 NUniq=   16 SFac= 1.00D+00 NAtFMM=   50 NAOKFM=F Big=F
 One-electron integrals computed using PRISM.
 NBasis=    97 RedAO= T  NBF=    97
 NBsUse=    97 1.00D-06 NBFU=    97
 Initial guess read from the read-write file.
 B after Tr=     0.000000    0.000000    0.000000
         Rot=    1.000000    0.000000    0.000000    0.000000 Ang=   0.00 deg.
 Initial guess orbital symmetries:
       Occupied  (A) (A) (A) (A) (A) (A) (A) (A) (A) (A) (A) (A)
                 (A) (A) (A) (A) (A) (A) (A) (A) (A)
       Virtual   (A) (A) (A) (A) (A) (A) (A) (A) (A) (A) (A) (A)
                 (A) (A) (A) (A) (A) (A) (A) (A) (A) (A) (A) (A)
                 (A) (A) (A) (A) (A) (A) (A) (A) (A) (A) (A) (A)
                 (A) (A) (A) (A) (A) (A) (A) (A) (A) (A) (A) (A)
                 (A) (A) (A) (A) (A) (A) (A) (A) (A) (A) (A) (A)
                 (A) (A) (A) (A) (A) (A) (A) (A) (A) (A) (A) (A)
                 (A) (A) (A) (A)
 Harris functional with IExCor=  402 diagonalized for initial guess.
 ExpMin= 1.61D-01 ExpMax= 4.17D+03 ExpMxC= 6.27D+02 IAcc=1 IRadAn=         1 AccDes= 0.00D+00
 HarFok:  IExCor=  402 AccDes= 0.00D+00 IRadAn=         1 IDoV= 1
 ScaDFX=  1.000000  1.000000  1.000000  1.000000
 FoFCou: FMM=F IPFlag=           0 FMFlag=      100000 FMFlg1=           0
         NFxFlg=           0 DoJE=T BraDBF=F KetDBF=T FulRan=T
         Omega=  0.000000  0.000000  1.000000  0.000000  0.000000 ICntrl=     500 IOpCl=  0
         NMat0=    1 NMatS0=    1 NMatT0=    0 NMatD0=    1 NMtDS0=    0 NMtDT0=    0
         I1Cent=           4 NGrid=           0.
 Petite list used in FoFCou.
 Requested convergence on RMS density matrix=1.00D-08 within 128 cycles.
 Requested convergence on MAX density matrix=1.00D-06.
 Requested convergence on             energy=1.00D-06.
 No special actions if energy rises.
 Keep R1 ints in memory in canonical form, NReq=12396098.
 Integral accuracy reduced to 1.0D-05 until final iterations.
 Initial convergence to 1.0D-05 achieved.  Increase integral accuracy.
 SCF Done:  E(RB3LYP) =  -213.803025700     A.U. after   13 cycles
             Convg  =    0.9742D-08             -V/T =  2.0100
 Calling FoFJK, ICntrl=      2127 FMM=F ISym2X=0 I1Cent= 0 IOpClX= 0 NMat=1 NMatS=1 NMatT=0.
 ***** Axes restored to original set *****
 -------------------------------------------------------------------
 Center     Atomic                   Forces (Hartrees/Bohr)
 Number     Number              X              Y              Z
 -------------------------------------------------------------------
      1        6           0.001215914    0.002064077    0.001626209
      2        6           0.000386143   -0.001284530   -0.001255807
      3        6          -0.001554998   -0.002145690    0.000190895
      4        6          -0.001975592   -0.000384108   -0.001736292
      5        7          -0.004555579   -0.002010515   -0.000849526
      6        1          -0.000372116    0.000343417    0.000182218
      7        1          -0.000089613    0.000314936    0.000307414
      8        1          -0.000324263    0.000135456    0.000408156
      9        1           0.000526031    0.000619077   -0.000387506
     10        1           0.000311200    0.000364324   -0.000256490
     11        1           0.000244047   -0.000117222    0.000145490
     12        1           0.000715540   -0.000197399    0.000502559
     13        1           0.000178422    0.000180990   -0.000179505
     14        1           0.000430801   -0.000139638    0.000299754
     15        1           0.002326049    0.001567930    0.000021201
     16        1           0.002538013    0.000688894    0.000981229
 -------------------------------------------------------------------
 Cartesian Forces:  Max     0.004555579 RMS     0.001210418

 GradGradGradGradGradGradGradGradGradGradGradGradGradGradGradGradGradGrad
 Berny optimization.
 Using GEDIIS/GDIIS optimizer.
 Internal  Forces:  Max     0.002150216 RMS     0.000584236
 Search for a local minimum.
 Step number   2 out of a maximum of   85
 All quantities printed in internal units (Hartrees-Bohrs-Radians)
 Mixed Optimization -- En-DIIS/RFO-DIIS
 Update second derivatives using D2CorX and points    1    2
 DE= -1.62D-03 DEPred=-1.49D-03 R= 1.09D+00
 SS=  1.41D+00  RLast= 1.50D-01 DXNew= 5.0454D-01 4.4921D-01
 Trust test= 1.09D+00 RLast= 1.50D-01 DXMaxT set to 4.49D-01
 ITU=  1  0
 Use linear search instead of GDIIS.
     Eigenvalues ---    0.00317   0.00360   0.00360   0.00412   0.03985
     Eigenvalues ---    0.04869   0.05085   0.05383   0.05436   0.05495
     Eigenvalues ---    0.05516   0.05520   0.05529   0.05939   0.14442
     Eigenvalues ---    0.15000   0.15377   0.16000   0.16000   0.16000
     Eigenvalues ---    0.16000   0.16000   0.16000   0.16000   0.16000
     Eigenvalues ---    0.16000   0.16144   0.28964   0.29300   0.29360
     Eigenvalues ---    0.33557   0.33781   0.33830   0.33832   0.33834
     Eigenvalues ---    0.33840   0.33869   0.33880   0.33886   0.34052
     Eigenvalues ---    0.45599   0.47956
 RFO step:  Lambda=-1.40967575D-04 EMin= 3.16905796D-03
 Quartic linear search produced a step of  0.14553.
 Iteration  1 RMS(Cart)=  0.00644478 RMS(Int)=  0.00004755
 Iteration  2 RMS(Cart)=  0.00004106 RMS(Int)=  0.00002582
 Iteration  3 RMS(Cart)=  0.00000000 RMS(Int)=  0.00002582
 Variable       Old X    -DE/DX   Delta X   Delta X   Delta X     New X
                                 (Linear)    (Quad)   (Total)
    R1        2.91624   0.00001   0.00255  -0.00164   0.00091   2.91715
    R2        2.89881   0.00097   0.00090   0.00319   0.00410   2.90291
    R3        2.89881   0.00097   0.00091   0.00320   0.00410   2.90291
    R4        2.79560   0.00034  -0.00479   0.00437  -0.00042   2.79519
    R5        2.07426  -0.00001  -0.00027   0.00016  -0.00011   2.07415
    R6        2.07556  -0.00041   0.00007  -0.00142  -0.00135   2.07421
    R7        2.07426  -0.00001  -0.00027   0.00016  -0.00011   2.07415
    R8        2.06986  -0.00042  -0.00078  -0.00089  -0.00167   2.06819
    R9        2.07495  -0.00010  -0.00018  -0.00022  -0.00040   2.07454
   R10        2.07178  -0.00006  -0.00054   0.00014  -0.00040   2.07138
   R11        2.06985  -0.00041  -0.00078  -0.00088  -0.00166   2.06819
   R12        2.07179  -0.00007  -0.00054   0.00013  -0.00041   2.07138
   R13        2.07494  -0.00010  -0.00018  -0.00022  -0.00040   2.07454
   R14        1.92315   0.00215   0.00528   0.00164   0.00692   1.93007
   R15        1.92315   0.00215   0.00528   0.00164   0.00692   1.93007
    A1        1.91963  -0.00012   0.00190  -0.00409  -0.00222   1.91741
    A2        1.91962  -0.00012   0.00191  -0.00408  -0.00220   1.91741
    A3        1.95939   0.00011   0.00117   0.00201   0.00321   1.96260
    A4        1.92192  -0.00010   0.00171  -0.00391  -0.00228   1.91964
    A5        1.87107   0.00012  -0.00340   0.00521   0.00181   1.87288
    A6        1.87110   0.00012  -0.00340   0.00517   0.00178   1.87288
    A7        1.93794  -0.00062  -0.00203  -0.00337  -0.00542   1.93252
    A8        1.95342   0.00001   0.00246  -0.00098   0.00149   1.95491
    A9        1.93796  -0.00062  -0.00202  -0.00338  -0.00543   1.93253
   A10        1.87592   0.00037   0.00077   0.00270   0.00349   1.87941
   A11        1.87935   0.00056   0.00018   0.00283   0.00295   1.88231
   A12        1.87593   0.00037   0.00077   0.00270   0.00348   1.87941
   A13        1.93318  -0.00102  -0.00222  -0.00598  -0.00824   1.92494
   A14        1.94205  -0.00069  -0.00161  -0.00498  -0.00662   1.93542
   A15        1.93574   0.00051   0.00037   0.00468   0.00506   1.94080
   A16        1.88175   0.00068   0.00058   0.00203   0.00253   1.88428
   A17        1.89203   0.00047   0.00246   0.00384   0.00632   1.89835
   A18        1.87692   0.00012   0.00065   0.00075   0.00141   1.87833
   A19        1.93312  -0.00101  -0.00225  -0.00594  -0.00822   1.92490
   A20        1.93576   0.00050   0.00038   0.00464   0.00503   1.94080
   A21        1.94207  -0.00069  -0.00160  -0.00499  -0.00662   1.93544
   A22        1.89203   0.00047   0.00247   0.00384   0.00633   1.89836
   A23        1.88176   0.00067   0.00058   0.00203   0.00253   1.88430
   A24        1.87692   0.00012   0.00065   0.00075   0.00141   1.87833
   A25        1.90366   0.00116  -0.00047   0.00404   0.00355   1.90721
   A26        1.90365   0.00116  -0.00048   0.00404   0.00354   1.90719
   A27        1.86511  -0.00176  -0.00621  -0.01807  -0.02433   1.84079
    D1       -3.12696  -0.00008   0.00355  -0.00451  -0.00098  -3.12794
    D2        1.05983  -0.00014   0.00228  -0.00498  -0.00269   1.05713
    D3       -1.03658  -0.00020   0.00101  -0.00542  -0.00439  -1.04098
    D4        1.03655   0.00020  -0.00093   0.00566   0.00471   1.04127
    D5       -1.05984   0.00014  -0.00220   0.00520   0.00300  -1.05684
    D6        3.12693   0.00008  -0.00347   0.00475   0.00130   3.12823
    D7       -1.04522   0.00006   0.00131   0.00059   0.00188  -1.04334
    D8        3.14157   0.00000   0.00004   0.00013   0.00016  -3.14145
    D9        1.04516  -0.00006  -0.00123  -0.00032  -0.00153   1.04362
   D10        3.13016  -0.00002  -0.00165   0.00755   0.00592   3.13608
   D11        1.03723   0.00027   0.00024   0.01227   0.01247   1.04970
   D12       -1.05132   0.00023   0.00023   0.01151   0.01173  -1.03959
   D13       -1.03473  -0.00031   0.00296  -0.00274   0.00026  -1.03446
   D14       -3.12766  -0.00002   0.00485   0.00198   0.00682  -3.12084
   D15        1.06698  -0.00006   0.00484   0.00122   0.00607   1.07305
   D16        0.99524  -0.00015  -0.00211   0.00427   0.00219   0.99743
   D17       -1.09769   0.00014  -0.00022   0.00899   0.00875  -1.08894
   D18        3.09695   0.00010  -0.00023   0.00823   0.00800   3.10495
   D19       -3.12931   0.00001   0.00155  -0.00827  -0.00673  -3.13605
   D20        1.05219  -0.00024  -0.00032  -0.01224  -0.01254   1.03964
   D21       -1.03639  -0.00027  -0.00034  -0.01297  -0.01327  -1.04966
   D22        1.03557   0.00031  -0.00306   0.00203  -0.00107   1.03450
   D23       -1.06612   0.00006  -0.00493  -0.00194  -0.00688  -1.07300
   D24        3.12849   0.00002  -0.00494  -0.00268  -0.00761   3.12089
   D25       -0.99438   0.00014   0.00201  -0.00500  -0.00301  -0.99740
   D26       -3.09607  -0.00010   0.00014  -0.00897  -0.00883  -3.10490
   D27        1.09854  -0.00014   0.00013  -0.00971  -0.00955   1.08899
   D28        1.01542  -0.00041  -0.00398  -0.00829  -0.01226   1.00316
   D29       -1.01574   0.00041   0.00406   0.00882   0.01287  -1.00287
   D30        3.12537  -0.00041  -0.00315  -0.00869  -0.01186   3.11351
   D31        1.09420   0.00040   0.00490   0.00842   0.01328   1.10748
   D32       -1.09453  -0.00040  -0.00482  -0.00788  -0.01266  -1.10720
   D33       -3.12570   0.00042   0.00323   0.00923   0.01247  -3.11323
         Item               Value     Threshold  Converged?
 Maximum Force            0.002150     0.000450     NO 
 RMS     Force            0.000584     0.000300     NO 
 Maximum Displacement     0.018902     0.001800     NO 
 RMS     Displacement     0.006453     0.001200     NO 
 Predicted change in Energy=-9.453696D-05
 GradGradGradGradGradGradGradGradGradGradGradGradGradGradGradGradGradGrad

                          Input orientation:                          
 ---------------------------------------------------------------------
 Center     Atomic      Atomic             Coordinates (Angstroms)
 Number     Number       Type             X           Y           Z
 ---------------------------------------------------------------------
      1          6           0       -0.014669    0.096004    0.091001
      2          6           0        1.235933   -0.419433   -0.652841
      3          6           0       -0.638451   -1.041586    0.913527
      4          6           0       -1.037923    0.635158   -0.919957
      5          7           0        0.299229    1.196082    1.028646
      6          1           0        1.701406    0.386427   -1.234767
      7          1           0        0.994844   -1.235184   -1.346528
      8          1           0        1.982903   -0.795924    0.057793
      9          1           0       -1.522985   -0.682227    1.448560
     10          1           0        0.074062   -1.424131    1.655923
     11          1           0       -0.931209   -1.880456    0.271588
     12          1           0       -1.925588    1.007819   -0.399405
     13          1           0       -1.344931   -0.144079   -1.627085
     14          1           0       -0.613975    1.463789   -1.502029
     15          1           0        0.741541    1.960480    0.515611
     16          1           0        0.999822    0.877271    1.699972
 ---------------------------------------------------------------------
                    Distance matrix (angstroms):
                    1          2          3          4          5
     1  C    0.000000
     2  C    1.543691   0.000000
     3  C    1.536153   2.520694   0.000000
     4  C    1.536155   2.520701   2.516488   0.000000
     5  N    1.479149   2.512907   2.428921   2.428923   0.000000
     6  H    2.187903   1.097594   3.482717   2.768555   2.782927
     7  H    2.204012   1.097622   2.795172   2.795046   3.469350
     8  H    2.187906   1.097593   2.768417   3.482726   2.783056
     9  H    2.173391   3.478013   1.094440   2.753300   2.650441
    10  H    2.183498   2.773040   1.097801   3.480279   2.703644
    11  H    2.186105   2.772302   1.096127   2.785585   3.398853
    12  H    2.173365   3.478001   2.753284   1.094440   2.650393
    13  H    2.186105   2.772332   2.785560   1.096128   3.398853
    14  H    2.183517   2.773050   3.480289   1.097801   2.703687
    15  H    2.056311   2.696978   3.327930   2.642693   1.021347
    16  H    2.056297   2.696836   2.642811   3.327920   1.021346
                    6          7          8          9         10
     6  H    0.000000
     7  H    1.772383   0.000000
     8  H    1.774233   1.772379   0.000000
     9  H    4.328852   3.802334   3.773382   0.000000
    10  H    3.779213   3.146149   2.567555   1.773127   0.000000
    11  H    3.786624   2.596990   3.116724   1.780790   1.770645
    12  H    3.773465   3.802239   4.328836   2.536400   3.759967
    13  H    3.116973   2.596876   3.786581   3.127443   3.798712
    14  H    2.567709   3.145939   3.779302   3.760008   4.334297
    15  H    2.542205   3.707289   3.057506   3.603106   3.633378
    16  H    3.057097   3.707244   2.542201   2.976541   2.481013
                   11         12         13         14         15
    11  H    0.000000
    12  H    3.127484   0.000000
    13  H    2.605980   1.780795   0.000000
    14  H    3.798727   1.773137   1.770642   0.000000
    15  H    4.196478   2.976305   3.657004   2.480926   0.000000
    16  H    3.657078   3.603116   4.196466   3.633339   1.625658
                   16
    16  H    0.000000
 Stoichiometry    C4H11N
 Framework group  C1[X(C4H11N)]
 Deg. of freedom    42
 Full point group                 C1      NOp   1
 Largest Abelian subgroup         C1      NOp   1
 Largest concise Abelian subgroup C1      NOp   1
                         Standard orientation:                         
 ---------------------------------------------------------------------
 Center     Atomic      Atomic             Coordinates (Angstroms)
 Number     Number       Type             X           Y           Z
 ---------------------------------------------------------------------
      1          6           0       -0.000001   -0.005158    0.016290
      2          6           0        0.000354    1.353378   -0.716759
      3          6           0        1.258106   -0.801895   -0.360729
      4          6           0       -1.258382   -0.801364   -0.360944
      5          7           0       -0.000094    0.146932    1.487599
      6          1           0       -0.886586    1.940777   -0.446551
      7          1           0        0.000276    1.232123   -1.807663
      8          1           0        0.887647    1.940278   -0.446627
      9          1           0        1.267823   -1.764612    0.159734
     10          1           0        2.167095   -0.255066   -0.078091
     11          1           0        1.302920   -0.984353   -1.440634
     12          1           0       -1.268577   -1.764051    0.159564
     13          1           0       -1.303060   -0.983849   -1.440851
     14          1           0       -2.167202   -0.254149   -0.078511
     15          1           0       -0.812901    0.697362    1.769594
     16          1           0        0.812756    0.697249    1.769689
 ---------------------------------------------------------------------
 Rotational constants (GHZ):      4.5674744      4.5442847      4.4516992
 Standard basis: 6-31G(d) (6D, 7F)
 There are    97 symmetry adapted basis functions of A   symmetry.
 Integral buffers will be    131072 words long.
 Raffenetti 2 integral format.
 Two-electron integral symmetry is turned on.
    97 basis functions,   184 primitive gaussians,    97 cartesian basis functions
    21 alpha electrons       21 beta electrons
       nuclear repulsion energy       199.0510424200 Hartrees.
 NAtoms=   16 NActive=   16 NUniq=   16 SFac= 1.00D+00 NAtFMM=   50 NAOKFM=F Big=F
 One-electron integrals computed using PRISM.
 NBasis=    97 RedAO= T  NBF=    97
 NBsUse=    97 1.00D-06 NBFU=    97
 Initial guess read from the read-write file.
 B after Tr=     0.000000    0.000000    0.000000
         Rot=    1.000000    0.000000    0.000000    0.000000 Ang=   0.00 deg.
 Initial guess orbital symmetries:
       Occupied  (A) (A) (A) (A) (A) (A) (A) (A) (A) (A) (A) (A)
                 (A) (A) (A) (A) (A) (A) (A) (A) (A)
       Virtual   (A) (A) (A) (A) (A) (A) (A) (A) (A) (A) (A) (A)
                 (A) (A) (A) (A) (A) (A) (A) (A) (A) (A) (A) (A)
                 (A) (A) (A) (A) (A) (A) (A) (A) (A) (A) (A) (A)
                 (A) (A) (A) (A) (A) (A) (A) (A) (A) (A) (A) (A)
                 (A) (A) (A) (A) (A) (A) (A) (A) (A) (A) (A) (A)
                 (A) (A) (A) (A) (A) (A) (A) (A) (A) (A) (A) (A)
                 (A) (A) (A) (A)
 Requested convergence on RMS density matrix=1.00D-08 within 128 cycles.
 Requested convergence on MAX density matrix=1.00D-06.
 Requested convergence on             energy=1.00D-06.
 No special actions if energy rises.
 Keep R1 ints in memory in canonical form, NReq=12396098.
 SCF Done:  E(RB3LYP) =  -213.803105958     A.U. after    9 cycles
             Convg  =    0.3786D-08             -V/T =  2.0101
 Calling FoFJK, ICntrl=      2127 FMM=F ISym2X=0 I1Cent= 0 IOpClX= 0 NMat=1 NMatS=1 NMatT=0.
 ***** Axes restored to original set *****
 -------------------------------------------------------------------
 Center     Atomic                   Forces (Hartrees/Bohr)
 Number     Number              X              Y              Z
 -------------------------------------------------------------------
      1        6           0.000429240   -0.000287259   -0.000360856
      2        6           0.000177888    0.000131470    0.000080165
      3        6          -0.000043103   -0.000056745    0.000329285
      4        6          -0.000129393    0.000302391   -0.000062443
      5        7           0.000136097    0.000115673    0.000077038
      6        1           0.000087701   -0.000032869   -0.000058537
      7        1          -0.000090674    0.000120086    0.000130346
      8        1           0.000091437   -0.000040802   -0.000047988
      9        1          -0.000123677   -0.000069784    0.000122792
     10        1           0.000002462   -0.000034714    0.000054210
     11        1           0.000066094    0.000250061   -0.000059392
     12        1          -0.000162067    0.000086445   -0.000049385
     13        1           0.000128810   -0.000015131    0.000232239
     14        1          -0.000016332    0.000049143   -0.000036401
     15        1          -0.000268607   -0.000294739   -0.000138547
     16        1          -0.000285876   -0.000223225   -0.000212524
 -------------------------------------------------------------------
 Cartesian Forces:  Max     0.000429240 RMS     0.000168054

 GradGradGradGradGradGradGradGradGradGradGradGradGradGradGradGradGradGrad
 Berny optimization.
 Using GEDIIS/GDIIS optimizer.
 Internal  Forces:  Max     0.000562368 RMS     0.000154263
 Search for a local minimum.
 Step number   3 out of a maximum of   85
 All quantities printed in internal units (Hartrees-Bohrs-Radians)
 Mixed Optimization -- En-DIIS/RFO-DIIS
 Swaping is turned off.
 Update second derivatives using D2CorX and points    1    2    3
 DE= -8.03D-05 DEPred=-9.45D-05 R= 8.49D-01
 SS=  1.41D+00  RLast= 5.91D-02 DXNew= 7.5548D-01 1.7716D-01
 Trust test= 8.49D-01 RLast= 5.91D-02 DXMaxT set to 4.49D-01
 ITU=  1  1  0
     Eigenvalues ---    0.00317   0.00360   0.00362   0.00412   0.03777
     Eigenvalues ---    0.04979   0.05055   0.05392   0.05495   0.05516
     Eigenvalues ---    0.05543   0.05585   0.05597   0.05956   0.14644
     Eigenvalues ---    0.15284   0.15371   0.15998   0.16000   0.16000
     Eigenvalues ---    0.16000   0.16000   0.16000   0.16000   0.16000
     Eigenvalues ---    0.16075   0.17538   0.28437   0.29253   0.29360
     Eigenvalues ---    0.33474   0.33790   0.33830   0.33832   0.33833
     Eigenvalues ---    0.33839   0.33869   0.33886   0.33959   0.34343
     Eigenvalues ---    0.45971   0.47956
 En-DIIS/RFO-DIIS IScMMF=        0 using points:     3    2
 RFO step:  Lambda=-3.83468569D-06.
 DidBck=F Rises=F RFO-DIIS coefs:    0.86651    0.13349
 Iteration  1 RMS(Cart)=  0.00172414 RMS(Int)=  0.00000226
 Iteration  2 RMS(Cart)=  0.00000188 RMS(Int)=  0.00000157
 Iteration  3 RMS(Cart)=  0.00000000 RMS(Int)=  0.00000157
 Variable       Old X    -DE/DX   Delta X   Delta X   Delta X     New X
                                  (DIIS)     (GDIIS)  (Total)
    R1        2.91715   0.00011  -0.00012   0.00034   0.00022   2.91737
    R2        2.90291   0.00021  -0.00055   0.00125   0.00070   2.90361
    R3        2.90291   0.00021  -0.00055   0.00124   0.00070   2.90361
    R4        2.79519  -0.00056   0.00006  -0.00134  -0.00129   2.79390
    R5        2.07415   0.00004   0.00001   0.00011   0.00012   2.07428
    R6        2.07421  -0.00015   0.00018  -0.00061  -0.00043   2.07378
    R7        2.07415   0.00004   0.00002   0.00011   0.00013   2.07428
    R8        2.06819   0.00014   0.00022   0.00013   0.00035   2.06854
    R9        2.07454   0.00005   0.00005   0.00008   0.00013   2.07467
   R10        2.07138  -0.00017   0.00005  -0.00049  -0.00044   2.07094
   R11        2.06819   0.00014   0.00022   0.00013   0.00035   2.06854
   R12        2.07138  -0.00018   0.00005  -0.00049  -0.00044   2.07094
   R13        2.07454   0.00005   0.00005   0.00008   0.00013   2.07467
   R14        1.93007  -0.00027  -0.00092   0.00035  -0.00057   1.92950
   R15        1.93007  -0.00027  -0.00092   0.00036  -0.00057   1.92950
    A1        1.91741   0.00005   0.00030   0.00059   0.00089   1.91829
    A2        1.91741   0.00005   0.00029   0.00059   0.00088   1.91830
    A3        1.96260   0.00002  -0.00043   0.00027  -0.00016   1.96244
    A4        1.91964   0.00005   0.00030   0.00024   0.00055   1.92018
    A5        1.87288  -0.00009  -0.00024  -0.00087  -0.00111   1.87177
    A6        1.87288  -0.00009  -0.00024  -0.00087  -0.00111   1.87177
    A7        1.93252   0.00016   0.00072   0.00026   0.00099   1.93351
    A8        1.95491  -0.00025  -0.00020  -0.00153  -0.00173   1.95318
    A9        1.93253   0.00016   0.00072   0.00026   0.00099   1.93352
   A10        1.87941   0.00002  -0.00047   0.00036  -0.00010   1.87931
   A11        1.88231  -0.00011  -0.00039   0.00035  -0.00004   1.88226
   A12        1.87941   0.00002  -0.00046   0.00036  -0.00010   1.87931
   A13        1.92494   0.00022   0.00110   0.00016   0.00126   1.92620
   A14        1.93542   0.00008   0.00088  -0.00038   0.00050   1.93592
   A15        1.94080  -0.00033  -0.00068  -0.00130  -0.00198   1.93882
   A16        1.88428  -0.00010  -0.00034   0.00031  -0.00002   1.88426
   A17        1.89835   0.00002  -0.00084   0.00075  -0.00009   1.89826
   A18        1.87833   0.00010  -0.00019   0.00054   0.00035   1.87868
   A19        1.92490   0.00023   0.00110   0.00019   0.00129   1.92619
   A20        1.94080  -0.00033  -0.00067  -0.00131  -0.00198   1.93882
   A21        1.93544   0.00008   0.00088  -0.00040   0.00048   1.93593
   A22        1.89836   0.00002  -0.00084   0.00075  -0.00010   1.89826
   A23        1.88430  -0.00010  -0.00034   0.00031  -0.00003   1.88427
   A24        1.87833   0.00010  -0.00019   0.00054   0.00035   1.87868
   A25        1.90721  -0.00040  -0.00047  -0.00168  -0.00216   1.90505
   A26        1.90719  -0.00040  -0.00047  -0.00166  -0.00213   1.90505
   A27        1.84079   0.00035   0.00325  -0.00175   0.00149   1.84228
    D1       -3.12794   0.00003   0.00013   0.00002   0.00015  -3.12779
    D2        1.05713   0.00006   0.00036   0.00041   0.00077   1.05790
    D3       -1.04098   0.00010   0.00059   0.00080   0.00138  -1.03959
    D4        1.04127  -0.00010  -0.00063  -0.00103  -0.00166   1.03961
    D5       -1.05684  -0.00006  -0.00040  -0.00064  -0.00104  -1.05789
    D6        3.12823  -0.00003  -0.00017  -0.00026  -0.00043   3.12780
    D7       -1.04334  -0.00004  -0.00025  -0.00050  -0.00076  -1.04409
    D8       -3.14145   0.00000  -0.00002  -0.00011  -0.00014  -3.14159
    D9        1.04362   0.00004   0.00020   0.00027   0.00048   1.04410
   D10        3.13608  -0.00001  -0.00079  -0.00185  -0.00264   3.13344
   D11        1.04970  -0.00009  -0.00166  -0.00209  -0.00376   1.04595
   D12       -1.03959  -0.00005  -0.00157  -0.00165  -0.00322  -1.04281
   D13       -1.03446   0.00011  -0.00004  -0.00058  -0.00062  -1.03509
   D14       -3.12084   0.00004  -0.00091  -0.00083  -0.00174  -3.12258
   D15        1.07305   0.00007  -0.00081  -0.00039  -0.00120   1.07185
   D16        0.99743  -0.00001  -0.00029  -0.00198  -0.00228   0.99516
   D17       -1.08894  -0.00009  -0.00117  -0.00223  -0.00339  -1.09234
   D18        3.10495  -0.00005  -0.00107  -0.00179  -0.00286   3.10209
   D19       -3.13605   0.00001   0.00090   0.00178   0.00268  -3.13336
   D20        1.03964   0.00005   0.00167   0.00157   0.00325   1.04289
   D21       -1.04966   0.00009   0.00177   0.00203   0.00380  -1.04586
   D22        1.03450  -0.00011   0.00014   0.00052   0.00066   1.03516
   D23       -1.07300  -0.00007   0.00092   0.00031   0.00123  -1.07177
   D24        3.12089  -0.00004   0.00102   0.00076   0.00178   3.12266
   D25       -0.99740   0.00001   0.00040   0.00191   0.00232  -0.99508
   D26       -3.10490   0.00005   0.00118   0.00171   0.00288  -3.10201
   D27        1.08899   0.00009   0.00128   0.00216   0.00343   1.09242
   D28        1.00316  -0.00001   0.00164  -0.00203  -0.00040   1.00277
   D29       -1.00287   0.00001  -0.00172   0.00189   0.00017  -1.00270
   D30        3.11351   0.00000   0.00158  -0.00172  -0.00014   3.11337
   D31        1.10748   0.00002  -0.00177   0.00220   0.00043   1.10791
   D32       -1.10720  -0.00002   0.00169  -0.00234  -0.00065  -1.10785
   D33       -3.11323   0.00000  -0.00166   0.00158  -0.00008  -3.11331
         Item               Value     Threshold  Converged?
 Maximum Force            0.000562     0.000450     NO 
 RMS     Force            0.000154     0.000300     YES
 Maximum Displacement     0.005071     0.001800     NO 
 RMS     Displacement     0.001724     0.001200     NO 
 Predicted change in Energy=-4.581530D-06
 GradGradGradGradGradGradGradGradGradGradGradGradGradGradGradGradGradGrad

                          Input orientation:                          
 ---------------------------------------------------------------------
 Center     Atomic      Atomic             Coordinates (Angstroms)
 Number     Number       Type             X           Y           Z
 ---------------------------------------------------------------------
      1          6           0       -0.014550    0.095782    0.090767
      2          6           0        1.237068   -0.418593   -0.652341
      3          6           0       -0.638408   -1.041532    0.914308
      4          6           0       -1.038055    0.635949   -0.919955
      5          7           0        0.297919    1.195418    1.028334
      6          1           0        1.702679    0.386905   -1.234781
      7          1           0        0.995345   -1.234218   -1.345596
      8          1           0        1.984338   -0.795344    0.057943
      9          1           0       -1.522244   -0.682581    1.451146
     10          1           0        0.074798   -1.425873    1.655211
     11          1           0       -0.932521   -1.878634    0.271078
     12          1           0       -1.925557    1.010503   -0.400091
     13          1           0       -1.345701   -0.144629   -1.624964
     14          1           0       -0.613454    1.463055   -1.503845
     15          1           0        0.740086    1.958643    0.514029
     16          1           0        0.998267    0.875159    1.698767
 ---------------------------------------------------------------------
                    Distance matrix (angstroms):
                    1          2          3          4          5
     1  C    0.000000
     2  C    1.543807   0.000000
     3  C    1.536523   2.521875   0.000000
     4  C    1.536523   2.521877   2.517575   0.000000
     5  N    1.478468   2.512310   2.427685   2.427686   0.000000
     6  H    2.188768   1.097660   3.484208   2.769975   2.783655
     7  H    2.202709   1.097396   2.795253   2.795248   3.467719
     8  H    2.188776   1.097660   2.769976   3.484214   2.783667
     9  H    2.174769   3.479677   1.094627   2.755917   2.649272
    10  H    2.184239   2.773136   1.097870   3.481528   2.704426
    11  H    2.184834   2.773363   1.095896   2.784390   3.396647
    12  H    2.174765   3.479675   2.755947   1.094627   2.649233
    13  H    2.184832   2.773400   2.784349   1.095895   3.396645
    14  H    2.184241   2.773102   3.481529   1.097870   2.704470
    15  H    2.053990   2.694190   3.325886   2.639624   1.021046
    16  H    2.053994   2.694166   2.639657   3.325889   1.021046
                    6          7          8          9         10
     6  H    0.000000
     7  H    1.772186   0.000000
     8  H    1.774312   1.772185   0.000000
     9  H    4.331066   3.803198   3.774897   0.000000
    10  H    3.779975   3.144675   2.568107   1.773322   0.000000
    11  H    3.787421   2.597224   3.118816   1.780695   1.770737
    12  H    3.774874   3.803211   4.331069   2.540919   3.763192
    13  H    3.118876   2.597257   3.787449   3.127780   3.797229
    14  H    2.568067   3.144609   3.779957   3.763193   4.335808
    15  H    2.540725   3.703745   3.056243   3.601720   3.633160
    16  H    3.056190   3.703732   2.540713   2.973356   2.479806
                   11         12         13         14         15
    11  H    0.000000
    12  H    3.127890   0.000000
    13  H    2.602396   1.780695   0.000000
    14  H    3.797241   1.773327   1.770735   0.000000
    15  H    4.193010   2.973253   3.653703   2.479817   0.000000
    16  H    3.653713   3.601704   4.193011   3.633179   1.626100
                   16
    16  H    0.000000
 Stoichiometry    C4H11N
 Framework group  C1[X(C4H11N)]
 Deg. of freedom    42
 Full point group                 C1      NOp   1
 Largest Abelian subgroup         C1      NOp   1
 Largest concise Abelian subgroup C1      NOp   1
                         Standard orientation:                         
 ---------------------------------------------------------------------
 Center     Atomic      Atomic             Coordinates (Angstroms)
 Number     Number       Type             X           Y           Z
 ---------------------------------------------------------------------
      1          6           0        0.000000   -0.005064    0.015838
      2          6           0        0.000070    1.360023   -0.705185
      3          6           0        1.258758   -0.798894   -0.366607
      4          6           0       -1.258817   -0.798785   -0.366641
      5          7           0       -0.000013    0.134141    1.487738
      6          1           0       -0.887062    1.945377   -0.430934
      7          1           0        0.000073    1.246584   -1.796702
      8          1           0        0.887250    1.945302   -0.430924
      9          1           0        1.270365   -1.765324    0.147285
     10          1           0        2.167893   -0.253193   -0.082000
     11          1           0        1.301197   -0.973950   -1.447598
     12          1           0       -1.270555   -1.765180    0.147314
     13          1           0       -1.301199   -0.973908   -1.447622
     14          1           0       -2.167915   -0.252968   -0.082136
     15          1           0       -0.813060    0.682307    1.772350
     16          1           0        0.813040    0.682287    1.772371
 ---------------------------------------------------------------------
 Rotational constants (GHZ):      4.5695267      4.5466221      4.4480796
 Standard basis: 6-31G(d) (6D, 7F)
 There are    97 symmetry adapted basis functions of A   symmetry.
 Integral buffers will be    131072 words long.
 Raffenetti 2 integral format.
 Two-electron integral symmetry is turned on.
    97 basis functions,   184 primitive gaussians,    97 cartesian basis functions
    21 alpha electrons       21 beta electrons
       nuclear repulsion energy       199.0595444123 Hartrees.
 NAtoms=   16 NActive=   16 NUniq=   16 SFac= 1.00D+00 NAtFMM=   50 NAOKFM=F Big=F
 One-electron integrals computed using PRISM.
 NBasis=    97 RedAO= T  NBF=    97
 NBsUse=    97 1.00D-06 NBFU=    97
 Initial guess read from the read-write file.
 B after Tr=     0.000000    0.000000    0.000000
         Rot=    1.000000    0.000000    0.000000    0.000000 Ang=   0.00 deg.
 Initial guess orbital symmetries:
       Occupied  (A) (A) (A) (A) (A) (A) (A) (A) (A) (A) (A) (A)
                 (A) (A) (A) (A) (A) (A) (A) (A) (A)
       Virtual   (A) (A) (A) (A) (A) (A) (A) (A) (A) (A) (A) (A)
                 (A) (A) (A) (A) (A) (A) (A) (A) (A) (A) (A) (A)
                 (A) (A) (A) (A) (A) (A) (A) (A) (A) (A) (A) (A)
                 (A) (A) (A) (A) (A) (A) (A) (A) (A) (A) (A) (A)
                 (A) (A) (A) (A) (A) (A) (A) (A) (A) (A) (A) (A)
                 (A) (A) (A) (A) (A) (A) (A) (A) (A) (A) (A) (A)
                 (A) (A) (A) (A)
 Requested convergence on RMS density matrix=1.00D-08 within 128 cycles.
 Requested convergence on MAX density matrix=1.00D-06.
 Requested convergence on             energy=1.00D-06.
 No special actions if energy rises.
 Keep R1 ints in memory in canonical form, NReq=12396098.
 SCF Done:  E(RB3LYP) =  -213.803110609     A.U. after    8 cycles
             Convg  =    0.4283D-08             -V/T =  2.0101
 Calling FoFJK, ICntrl=      2127 FMM=F ISym2X=0 I1Cent= 0 IOpClX= 0 NMat=1 NMatS=1 NMatT=0.
 ***** Axes restored to original set *****
 -------------------------------------------------------------------
 Center     Atomic                   Forces (Hartrees/Bohr)
 Number     Number              X              Y              Z
 -------------------------------------------------------------------
      1        6           0.000044505   -0.000051777   -0.000055860
      2        6          -0.000052093    0.000012012    0.000021821
      3        6          -0.000015550   -0.000069500   -0.000001160
      4        6          -0.000028712   -0.000012640   -0.000063052
      5        7           0.000099983    0.000150379    0.000114924
      6        1          -0.000000625   -0.000011158    0.000005964
      7        1          -0.000011088   -0.000012449   -0.000009057
      8        1          -0.000005031    0.000004721   -0.000010820
      9        1           0.000013857    0.000006942   -0.000016873
     10        1           0.000000243    0.000011757   -0.000007258
     11        1          -0.000010565   -0.000002572   -0.000013893
     12        1           0.000018629   -0.000012710    0.000004049
     13        1          -0.000007482   -0.000016320    0.000000278
     14        1           0.000004196   -0.000005210    0.000012155
     15        1          -0.000029071    0.000021799   -0.000009439
     16        1          -0.000021197   -0.000013274    0.000028221
 -------------------------------------------------------------------
[...]
 ! D11   D(2,1,3,10)            59.9283         -DE/DX =    0.0                 !
 ! D12   D(2,1,3,11)           -59.7486         -DE/DX =    0.0                 !
 ! D13   D(4,1,3,9)            -59.306          -DE/DX =    0.0                 !
 ! D14   D(4,1,3,10)          -178.9106         -DE/DX =    0.0                 !
 ! D15   D(4,1,3,11)            61.4125         -DE/DX =    0.0                 !
 ! D16   D(5,1,3,9)             57.0184         -DE/DX =    0.0                 !
 ! D17   D(5,1,3,10)           -62.5862         -DE/DX =    0.0                 !
 ! D18   D(5,1,3,11)           177.7369         -DE/DX =    0.0                 !
 ! D19   D(2,1,4,12)          -179.5285         -DE/DX =    0.0                 !
 ! D20   D(2,1,4,13)            59.7532         -DE/DX =    0.0                 !
 ! D21   D(2,1,4,14)           -59.9235         -DE/DX =    0.0                 !
 ! D22   D(3,1,4,12)            59.3104         -DE/DX =    0.0                 !
 ! D23   D(3,1,4,13)           -61.4078         -DE/DX =    0.0                 !
 ! D24   D(3,1,4,14)           178.9154         -DE/DX =    0.0                 !
 ! D25   D(5,1,4,12)           -57.014          -DE/DX =    0.0                 !
 ! D26   D(5,1,4,13)          -177.7322         -DE/DX =    0.0                 !
 ! D27   D(5,1,4,14)            62.5911         -DE/DX =    0.0                 !
 ! D28   D(2,1,5,15)            57.4542         -DE/DX =    0.0                 !
 ! D29   D(2,1,5,16)           -57.4504         -DE/DX =    0.0                 !
 ! D30   D(3,1,5,15)           178.3832         -DE/DX =    0.0                 !
 ! D31   D(3,1,5,16)            63.4786         -DE/DX =    0.0                 !
 ! D32   D(4,1,5,15)           -63.475          -DE/DX =    0.0                 !
 ! D33   D(4,1,5,16)          -178.3796         -DE/DX =    0.0                 !
 --------------------------------------------------------------------------------
 GradGradGradGradGradGradGradGradGradGradGradGradGradGradGradGradGradGrad


 Test job not archived.
 1\1\GINC-TERMINUS\Freq\RB3LYP\6-31G(d)\C4H11N1\FRODOX\22-Jan-2018\0\\#
 N Geom=AllCheck Guess=TCheck SCRF=Check Test GenChk RB3LYP/6-31G(d) Fr
 eq\\NeoConformation/tert-butylamine.xyz\\0,1\C,-0.0145501576,0.0957821
 196,0.0907670748\C,1.2370683419,-0.4185929441,-0.6523411543\C,-0.63840
 76858,-1.0415322183,0.9143081574\C,-1.0380552098,0.6359491904,-0.91995
 52385\N,0.2979185216,1.1954178141,1.0283337598\H,1.7026787414,0.386905
 0102,-1.2347813504\H,0.9953446411,-1.2342184885,-1.3455956189\H,1.9843
 382279,-0.7953442501,0.0579434401\H,-1.5222440603,-0.6825811049,1.4511
 457078\H,0.0747984738,-1.4258727213,1.6552112214\H,-0.9325210257,-1.87
 86338929,0.2710777573\H,-1.9255566556,1.0105027518,-0.4000911268\H,-1.
 3457007785,-0.1446289691,-1.6249637555\H,-0.6134542915,1.4630554851,-1
 .5038447439\H,0.7400857167,1.9586430333,0.5140287584\H,0.9982672004,0.
 8751591847,1.6987671113\\Version=EM64L-G09RevB.01\State=1-A\HF=-213.80
 31106\RMSD=2.010e-09\RMSF=3.887e-05\ZeroPoint=0.1493256\Thermal=0.1560
 779\Dipole=0.4353595,-0.1310222,-0.2147033\DipoleDeriv=0.3681419,0.046
 4543,0.0111985,0.0056826,0.3990945,0.1583539,-0.0260864,0.1494675,0.36
 69578,-0.0161713,0.0635933,0.080581,0.0047169,0.0494657,-0.0351166,0.0
 267377,-0.0479432,0.0370685,0.047874,-0.0325018,0.0331324,-0.0289144,0
 .0337391,0.0053995,0.0366133,0.0539311,0.0597236,0.0173126,0.0207177,-
 0.04345,0.0355458,0.0781872,0.033965,-0.0300922,-0.0105503,0.0458281,-
 0.3768377,0.1062974,0.1344466,0.0446486,-0.4923767,-0.2716582,0.078068
 9,-0.2850971,-0.4837044,-0.0113711,-0.0456225,0.060414,-0.0815696,-0.0
 841162,0.0986963,0.0722035,0.0695489,-0.0183954,0.0269531,-0.0359227,-
 0.0258546,-0.01272,-0.0798807,-0.1243051,-0.0046351,-0.1192493,-0.0489
 765,-0.0779156,0.0619869,-0.0696953,0.0644729,0.0236226,0.0331262,-0.1
 120831,0.054983,-0.0595878,-0.0814977,0.0294612,0.0946111,0.0579507,0.
 033372,-0.0261555,0.0873729,-0.0047128,0.0024129,-0.0552574,0.057347,-
 0.1173401,0.025395,0.0070102,0.0619845,-0.0820745,0.0785739,-0.0625197
 ,0.0406305,-0.0454316,-0.018093,-0.0567575,-0.0797883,-0.0663892,-0.03
 8156,-0.1088912,-0.0300046,-0.0927575,0.067317,0.0496511,0.0670086,0.0
 351308,-0.0130986,0.0826593,-0.0284043,0.011921,0.0318626,-0.0200012,-
 0.0405151,-0.0500124,-0.0605196,-0.1101146,-0.058253,-0.0766197,-0.040
 4981,0.000683,-0.0831285,0.0483486,-0.0470221,-0.0850096,0.1119395,0.0
 168809,0.0962556,-0.0264408,0.1310787,-0.1956652,0.0140858,-0.0886683,
 0.1067278,0.0636336,0.0467258,0.1365007,0.0855094,0.0472721,0.0050986,
 -0.211521,0.0602433,0.1153412,0.0797393,-0.0958819,0.0422072,0.160706\
 Polar=49.7853803,0.7741103,51.145245,1.151574,-0.786833,50.8505982\PG=
 C01 [X(C4H11N1)]\NImag=0\\0.49784647,0.00551871,0.50015562,0.01141335,
 -0.02580505,0.50096965,-0.14389304,0.02362210,0.03545886,0.50060056,0.
 01918036,-0.08348013,-0.00709344,0.03361633,0.56611088,0.03139728,-0.0
 0806098,-0.09450643,0.04804124,-0.02002167,0.55121650,-0.09548007,-0.0
 2859689,0.02139365,-0.01711756,-0.02022905,0.02044744,0.56629277,-0.03
 018031,-0.12812621,0.03826303,0.00115664,0.00875491,-0.00153533,-0.034
 62440,0.52762171,0.02512380,0.04618243,-0.10991282,0.01185770,0.012777
 98,-0.01165878,0.01998028,0.05122244,0.55072168,-0.12387069,0.02323064
 ,-0.04258019,-0.02714435,0.01491159,-0.01672789,0.00939952,-0.00125769
 ,0.00622964,0.53602542,0.02858694,-0.09214704,0.02957009,0.01120174,-0
 .00424056,0.00743023,0.01636763,-0.01294026,0.02122515,0.02398499,0.56
 884136,-0.04285999,0.02247208,-0.11750246,0.00802610,-0.00303244,0.011
 36405,-0.01104409,0.01283248,-0.01726365,-0.05066760,0.03369681,0.5397
 6915,-0.07189390,-0.03590298,-0.03904303,0.00799298,0.01965507,0.01664
 154,-0.00411403,-0.01520901,-0.00844024,-0.00888680,-0.01853461,-0.021
 17791,0.39031549,0.00499924,-0.14714567,-0.04385520,-0.00319589,-0.021
 62909,-0.02079653,-0.01399078,-0.03555519,-0.01975581,-0.00064712,0.00
 646541,0.00302161,0.08755119,0.52524228,-0.00163664,-0.03494129,-0.131
 98146,-0.00425617,-0.02577515,-0.02077262,0.00256689,0.01104417,0.0105
 4686,-0.01471327,-0.02361604,-0.02670086,0.14072110,-0.15021881,0.5005
 8910,-0.01192359,-0.02233405,0.01371118,-0.09326596,-0.07922535,0.0561
 9909,-0.00449641,0.00351733,0.00213134,0.00119409,-0.00155307,0.000726
 64,0.00125928,-0.00059185,-0.00225280,0.10016986,0.00493306,0.00642016
 ,-0.00683740,-0.07987313,-0.19197363,0.10113674,0.00131232,0.00018311,
 -0.00106356,-0.00014305,0.00048510,-0.00028610,0.00037681,0.00226648,0
 .00058034,0.08671513,0.20692592,0.00619011,0.01270264,-0.00941910,0.05
 568886,0.10124090,-0.12080766,0.00288878,-0.00248423,-0.00124499,-0.00
 112355,0.00003955,0.00019449,-0.00132804,0.00074292,0.00130044,-0.0639
 1206,-0.11141297,0.12821210,0.00937411,0.01816058,0.01411507,-0.064729
 66,-0.04486628,-0.03777314,0.00085232,0.00016170,-0.00031307,0.0009379
 0,0.00000640,0.00005485,-0.00357097,0.00467413,0.00535621,-0.00372088,
 -0.00914390,-0.00909421,0.06659060,-0.00485518,-0.00835564,-0.00469043
 ,-0.04436067,-0.19224823,-0.12063439,-0.00056909,0.00001610,0.00051511
 ,-0.00074785,-0.00008830,-0.00020229,0.00367639,-0.00095453,-0.0029482
 6,-0.00527780,-0.01745413,-0.01585591,0.04909670,0.20691744,-0.0069338
 9,-0.00970509,-0.00943486,-0.03731059,-0.12052421,-0.15186744,-0.00082
 244,-0.00041263,0.00011129,-0.00079389,0.00040180,0.00013047,0.0044436
 3,-0.00316556,-0.00246986,0.00385843,0.01362330,0.01273150,0.04090258,
 0.13442032,0.16225990,-0.01912223,0.00832143,-0.02026491,-0.16559599,0
 .05907968,-0.11416982,0.00086756,0.00070106,-0.00169255,-0.00407178,0.
 00148358,0.00478787,0.00198493,-0.00194354,-0.00047016,0.01056061,-0.0
 0431717,0.00970865,-0.00509293,0.00222027,-0.00433402,0.18026684,0.007
 22016,-0.00501912,0.00758364,0.05856827,-0.07924116,0.05820801,-0.0009
 3285,0.00009436,-0.00005038,0.00175414,-0.00061306,-0.00200804,-0.0009
 4824,0.00071402,0.00099976,0.01742893,-0.00812495,0.01580159,-0.017412
 99,0.00995606,-0.01637528,-0.06645400,0.08155985,0.01118553,-0.0062555
 3,0.00921933,-0.11471953,0.05785127,-0.16120868,-0.00004743,-0.0004249
 0,0.00091201,0.00226154,-0.00100895,-0.00087338,0.00040099,0.00126510,
 0.00212693,-0.01137608,0.00449570,-0.01132092,-0.01287236,0.00798395,-
 0.01330682,0.12483100,-0.06357206,0.17347984,-0.01207322,0.00552494,0.
 00662547,-0.00022113,-0.00347569,0.00123215,-0.22306148,0.07261375,0.1
 0394260,0.00045603,0.00060495,-0.00092310,0.00096719,0.00100812,-0.001
 05213,-0.00063388,0.00020979,0.00082982,0.00015293,0.00015910,-0.00001
 812,0.00047539,-0.00004342,-0.00015981,0.24022648,-0.02081092,0.008265
 78,0.01244350,-0.00155198,-0.00386973,0.00212583,0.07468218,-0.0796843
 7,-0.04499396,-0.00080659,0.00103660,-0.00043226,0.00055902,0.00164216
 ,0.00003672,-0.00136761,0.00065122,0.00095241,0.00010253,0.00003865,0.
 00023622,-0.00006352,-0.00012311,-0.00015684,-0.07996051,0.08384311,0.
 01493753,-0.00724543,-0.01060119,0.00063723,0.00377577,-0.00171224,0.1
 0389747,-0.04340178,-0.11233260,0.00097604,-0.00129619,0.00027328,-0.0
 0144471,-0.00094963,0.00111721,0.00140526,-0.00018471,-0.00027284,-0.0
 0037159,0.00012347,0.00028282,0.00022161,-0.00006380,0.00021864,-0.115
 80131,0.04593581,0.11973956,0.00825691,-0.00482921,0.00945791,0.001155
 74,-0.00018299,0.00037474,-0.16165764,0.05785213,-0.11399228,-0.000448
 63,-0.00165898,0.00128906,0.00070463,0.00079402,0.00073153,0.00025164,
 0.00006459,-0.00016020,-0.00007211,0.00005310,0.00011897,0.00011127,-0
 .00014017,-0.00005910,-0.01679412,0.00774264,-0.01886799,0.17309721,0.
 01792630,-0.00923330,0.01648017,0.00106610,0.00041011,-0.00098870,0.05
 773619,-0.07918107,0.05832970,-0.00336631,-0.00374840,0.00183935,0.001
 00888,0.00172728,0.00036556,0.00000021,-0.00004939,-0.00031874,-0.0001
 1664,0.00001975,-0.00007102,-0.00069685,0.00042576,-0.00003670,0.00685
 297,-0.00417098,0.00776547,-0.06254284,0.08386414,-0.01337147,0.004912
 94,-0.01356960,-0.00152467,-0.00008576,0.00019530,-0.11295398,0.058431
 82,-0.16472063,0.00318427,0.00287329,-0.00123453,0.00006938,-0.0014426
 7,0.00087921,0.00022680,-0.00020555,0.00038891,0.00002515,0.00008818,-
 0.00007560,0.00118491,-0.00008965,0.00012357,0.01063393,-0.00559412,0.
 01254243,0.12534946,-0.06732960,0.17801388,-0.00460908,-0.00827056,-0.
 00937216,0.00005197,-0.00026965,-0.00068908,-0.06844583,-0.05291615,-0
 .04055539,0.00016177,0.00079306,-0.00022654,-0.00058491,-0.00219685,0.
 00192866,0.00018859,0.00030894,0.00002269,-0.00018699,0.00008938,0.000
 65446,-0.00008368,-0.00010336,0.00003069,0.00962996,0.02073528,0.01576
 608,-0.00601056,-0.01750116,-0.01262624,0.06908684,-0.00386538,-0.0165
 3686,-0.01715733,0.00061523,0.00035816,-0.00086789,-0.05325502,-0.2001
 6005,-0.11775331,-0.00015212,0.00050874,-0.00165656,-0.00189488,-0.004
 85345,0.00430683,0.00027579,0.00020710,0.00021875,-0.00025828,0.000671
 97,0.00057754,0.00001443,0.00001980,0.00013908,-0.00300643,-0.00769659
 ,-0.00530230,0.00288272,0.01027546,0.00723344,0.05961913,0.21768845,0.
 00434202,0.01276622,0.01067867,-0.00012723,-0.00008474,0.00028211,-0.0
 4149667,-0.11982571,-0.14323862,0.00015429,0.00004059,0.00087936,0.001
 03833,0.00323122,-0.00104201,-0.00029895,0.00003232,0.00021595,0.00029
 514,0.00014656,0.00009053,0.00006204,-0.00009576,-0.00006688,-0.005331
 29,-0.01032062,-0.00923142,-0.00466334,-0.01690694,-0.01301261,0.04505
 844,0.12989964,0.15357928,-0.01914556,0.00793101,0.01218699,-0.0021736
 6,0.00125271,-0.00481310,0.00050450,-0.00087084,0.00111662,-0.22244456
 ,0.07224404,0.10412773,0.00191344,-0.00075263,0.00124015,0.00041061,-0
 .00015272,-0.00012593,0.00027534,0.00003640,0.00007041,-0.00131818,0.0
 0080724,0.00058511,0.00070473,0.00034812,-0.00064299,0.00021444,-0.000
 27796,-0.00015837,0.00002908,-0.00002494,-0.00009739,0.24101768,0.0098
 2103,-0.00579860,-0.00655844,0.00117516,-0.00076568,0.00240405,0.00068
 615,0.00010897,-0.00120686,0.07269639,-0.08032683,-0.04335349,-0.00138
 967,0.00054223,-0.00030044,0.00023789,0.00021200,-0.00016375,-0.000336
 33,0.00023921,0.00020826,0.00100556,0.00023779,-0.00031039,-0.00024321
 ,-0.00012781,0.00077152,-0.00036749,0.00016453,0.00002650,0.00007360,-
 0.00006463,-0.00001071,-0.08160344,0.08332859,-0.01847896,0.00780651,0
 .01053529,-0.00252956,0.00115647,-0.00286382,-0.00064913,-0.00031134,0
 .00115217,0.10647795,-0.04439675,-0.11230589,0.00063922,0.00044944,0.0
 0127106,-0.00016852,-0.00017609,-0.00005166,0.00003127,0.00022744,-0.0
 0004020,-0.00125149,0.00052624,0.00082490,0.00015803,0.00012250,-0.000
 16754,0.00003889,-0.00025778,0.00015149,0.00011270,0.00001840,-0.00006
 183,-0.11397707,0.04636229,0.11946162,-0.00544413,-0.01747816,-0.01152
 924,0.00037341,-0.00085079,-0.00014850,0.00043960,-0.00063320,0.000854
 13,-0.07002921,-0.05079248,-0.04570657,-0.00264301,0.00221108,-0.00365
 492,-0.00011844,0.00004470,-0.00005334,-0.00041161,0.00065973,0.000212
 50,0.00035670,0.00011923,0.00024808,0.00002605,0.00013770,0.00003887,-
 0.00012868,0.00001060,0.00025218,0.00037844,0.00039728,-0.00002238,0.0
 0988042,0.01987270,0.01661360,0.07171159,0.00303190,0.00785457,0.00748
 799,-0.00006964,0.00000961,-0.00008817,0.00007106,0.00066708,0.0001797
 5,-0.05220664,-0.18583572,-0.12163326,0.00111657,0.00026309,0.00191886
 ,0.00002808,-0.00004486,-0.00011688,0.00018973,0.00035522,0.00016122,-
 0.00023831,0.00019904,0.00015245,-0.00007919,-0.00005267,0.00002111,-0
 .00001018,0.00025583,-0.00016270,0.00010956,0.00009973,0.00009627,-0.0
 0323724,-0.00750604,-0.00512079,0.05622503,0.20021719,-0.00246121,-0.0
 1700709,-0.01287784,0.00081316,-0.00050808,0.00030919,0.00025285,-0.00
 157000,0.00044349,-0.04636810,-0.11994265,-0.15598112,-0.00349006,0.00
 282171,-0.00410061,0.00000790,0.00013995,0.00003263,-0.00017597,0.0004
 1397,0.00063189,0.00021246,0.00025379,0.00005581,-0.00003929,-0.000018
 43,-0.00007083,0.00013968,0.00021265,0.00038099,0.00006632,0.00104406,
 -0.00006753,-0.00513406,-0.01030995,-0.00967226,0.05268848,0.13265467,
 0.16842728,0.00875064,0.01740664,-0.01182249,0.00155339,0.00044574,-0.
 00045926,-0.00286107,0.00110707,-0.00262830,-0.09077880,-0.07772302,0.
 05416659,0.00099864,0.00089824,0.00117540,-0.00028288,-0.00015914,0.00
 005699,-0.00011344,0.00009496,0.00004902,0.00026960,-0.00025000,0.0000
 7150,0.00011676,-0.00004865,-0.00034969,0.00080110,0.00098013,-0.00092
 877,-0.00017260,0.00005837,0.00011541,-0.01002525,-0.02133309,0.012644
 08,-0.00432272,-0.00586050,0.00495444,0.09576586,-0.00603040,-0.010703
 61,0.00534495,-0.00111280,-0.00009114,0.00017470,0.00308116,0.00008154
 ,0.00139871,-0.07669818,-0.19465735,0.10108193,-0.00014960,0.00097196,
 -0.00114971,0.00100230,0.00032445,-0.00032681,0.00003025,-0.00004435,0
 .00010054,0.00014789,0.00033543,-0.00026817,-0.00016887,0.00008948,-0.
 00000818,-0.00034644,-0.00043038,0.00087529,0.00008202,0.00044251,-0.0
 0020436,0.00416484,0.00991207,-0.00644147,-0.00926488,-0.01735659,0.01
 307112,0.08467868,0.21046371,0.01038470,0.01676171,-0.01259282,0.00115
 780,-0.00079564,0.00029892,-0.00427937,0.00042246,-0.00265201,0.053959
 13,0.10117831,-0.12012260,0.00107551,0.00047694,0.00134027,-0.00063434
 ,-0.00014214,0.00061942,-0.00007166,-0.00010974,0.00002977,-0.00001042
 ,-0.00030869,-0.00001381,-0.00018058,-0.00029912,0.00032425,0.00037695
 ,0.00148290,-0.00065667,0.00004356,0.00018076,0.00023820,0.00564762,0.
 01228115,-0.00830912,-0.00883904,-0.01625168,0.01293149,-0.05750419,-0
 .11402545,0.12874444,-0.00694626,-0.00107027,0.01015227,0.00085429,0.0
 0126990,-0.00097603,-0.00077727,-0.00206583,-0.00315178,-0.00026012,-0
 .00102787,0.00104254,-0.10492881,-0.15446431,0.07559676,0.00042912,-0.
 00014340,0.00022952,-0.00013083,-0.00023286,-0.00006644,-0.00008552,0.
 00027119,-0.00004624,0.00044025,0.00037833,-0.00027180,0.00018709,0.00
 002114,0.00021603,0.00021492,-0.00140087,0.00046618,-0.00041995,-0.000
 20211,0.00003301,0.00020658,0.00065321,-0.00010487,0.00013117,0.000360
 79,-0.00122247,0.10223995,-0.01490230,-0.02470081,0.01705997,0.0002280
 2,0.00107866,0.00201985,-0.00082059,-0.00362899,-0.00580108,0.00051926
 ,0.00125910,0.00070201,-0.10879300,-0.23014683,0.12824305,0.00099034,0
 .00008253,-0.00119046,-0.00021727,0.00097103,0.00022124,0.00014937,-0.
 00024559,-0.00011960,-0.00008215,0.00026441,-0.00002925,0.00027084,0.0
 0035356,-0.00011903,-0.00100521,-0.00109487,0.00094370,0.00021738,0.00
 000865,-0.00014301,0.00043085,0.00002266,-0.00004453,-0.00049765,0.000
 56156,-0.00058147,0.13147315,0.26510652,-0.00972566,-0.02264842,0.0106
 8340,-0.00097562,-0.00104910,0.00108709,-0.00093039,-0.00286783,-0.002
 19400,-0.00023292,-0.00112584,0.00173553,0.05930172,0.15520018,-0.1530
 4608,0.00026798,0.00039562,-0.00024524,-0.00009623,0.00022203,-0.00005
 383,0.00008677,0.00016094,-0.00013470,-0.00024478,0.00002809,-0.000093
 61,0.00021215,-0.00026003,0.00003642,-0.00052214,-0.00091861,0.0009778
 3,0.00010622,0.00013761,-0.00012287,0.00030698,0.00026137,0.00003630,0
 .00014930,0.00045635,-0.00048640,-0.06537896,-0.14798779,0.15640802,-0
 .00982637,0.00876606,0.00009728,0.00155900,-0.00031158,0.00142336,-0.0
 0034491,0.00064775,-0.00046251,-0.00023979,-0.00398330,-0.00161558,-0.
 20951415,0.07564696,-0.20128061,-0.00002176,-0.00003283,0.00018192,-0.
 00015377,-0.00004257,-0.00003061,0.00047741,0.00011587,-0.00033390,-0.
 00041192,-0.00007602,-0.00013002,0.00033171,-0.00110076,0.00042139,0.0
 0035207,-0.00000503,0.00050541,0.00057692,-0.00009313,0.00030597,-0.00
 027499,0.00027654,-0.00136173,0.00016960,0.00022326,0.00009680,0.00884
 539,-0.00796104,0.01767556,0.20847556,-0.02057319,0.00855086,-0.022236
 04,-0.00108548,0.00081700,-0.00050575,-0.00091801,0.00174836,-0.001206
 30,-0.00107147,-0.00399877,-0.00304181,0.06887805,-0.09955014,0.091454
 41,0.00015373,-0.00011112,0.00017100,-0.00007032,-0.00004025,0.0003033
 6,0.00059012,-0.00017512,0.00026559,0.00008587,-0.00010616,0.00008812,
 0.00041827,-0.00068291,0.00058761,0.00045197,0.00013453,0.00029232,-0.
 00008196,-0.00016446,0.00017791,-0.00108940,0.00085186,-0.00121120,0.0
 0020222,0.00010074,-0.00027031,0.02617980,-0.00989158,0.01999543,-0.07
 207018,0.10251717,-0.01950650,0.00806436,-0.01968776,-0.00023758,0.002
 16782,0.00064452,0.00079615,0.00061736,0.00133060,-0.00003544,-0.00506
 941,-0.00236184,-0.14940745,0.07297508,-0.17905758,0.00010811,-0.00009
 544,-0.00033304,-0.00001203,0.00029998,0.00098044,0.00109805,-0.000970
 31,-0.00003584,0.00032843,-0.00006574,-0.00001590,-0.00034643,-0.00030
 627,0.00055745,0.00030796,0.00003749,-0.00022101,-0.00013196,0.0000226
 5,0.00019867,-0.00126084,0.00043978,-0.00047888,0.00030996,-0.00007943
 ,0.00030667,-0.01651773,0.00682640,-0.01458785,0.18450728,-0.08486433,
 0.21276136\\-0.00004450,0.00005176,0.00005585,0.00005211,-0.00001201,-
 0.00002182,0.00001554,0.00006950,0.00000118,0.00002869,0.00001266,0.00
 006305,-0.00009998,-0.00015036,-0.00011490,0.00000062,0.00001116,-0.00
 000596,0.00001108,0.00001244,0.00000905,0.00000503,-0.00000472,0.00001
 082,-0.00001385,-0.00000694,0.00001687,-0.00000024,-0.00001176,0.00000
 725,0.00001057,0.00000257,0.00001389,-0.00001862,0.00001271,-0.0000040
 5,0.00000748,0.00001631,-0.00000028,-0.00000419,0.00000521,-0.00001215
 ,0.00002907,-0.00002180,0.00000944,0.00002119,0.00001327,-0.00002823\\
 \@


 THESE ARE THE TIMES THAT TRY MENS SOULS.
 THE SUMMER SOLDIER AND THE SUNSHINE PATRIOT WILL IN THIS CRISIS,
 SHRINK FROM THE SERVICE OF HIS COUNTRY.  BUT HE THAT STANDS NOW,
 DESERVES THE LOVE AND THANKS OF MAN AND WOMAN.
 TYRANNY, LIKE HELL, IS NOT EASILY CONQUERED,
 YET WE HAVE THIS CONSOLATION WITH US,
 THAT THE HARDER THE CONFLICT, THE MORE GLORIOUS THE TRIUMPH.
 WHAT WE OBTAIN TOO CHEAP, WE ESTEEM TOO LIGHTLY, 
 'TIS DEARNESS ONLY THAT GIVES EVERYTHING ITS VALUE.

                                              -- TOM PAINE
 Job cpu time:  0 days  0 hours  2 minutes  8.1 seconds.
 File lengths (MBytes):  RWF=     23 Int=      0 D2E=      0 Chk=      2 Scr=      1
 Normal termination of Gaussian 09 at Mon Jan 22 17:42:28 2018.
