 Entering Gaussian System, Link 0=g09
 Input=neopentane.inp
 Output=neopentane.log
 Initial command:
 /usr/local/g09/l1.exe /home/g09scr/Gau-4926.inp -scrdir=/home/g09scr/
 Entering Link 1 = /usr/local/g09/l1.exe PID=      4928.
  
 Copyright (c) 1988,1990,1992,1993,1995,1998,2003,2009,2010,
            Gaussian, Inc.  All Rights Reserved.
  
 This is part of the Gaussian(R) 09 program.  It is based on
 the Gaussian(R) 03 system (copyright 2003, Gaussian, Inc.),
 the Gaussian(R) 98 system (copyright 1998, Gaussian, Inc.),
 the Gaussian(R) 94 system (copyright 1995, Gaussian, Inc.),
 the Gaussian 92(TM) system (copyright 1992, Gaussian, Inc.),
 the Gaussian 90(TM) system (copyright 1990, Gaussian, Inc.),
 the Gaussian 88(TM) system (copyright 1988, Gaussian, Inc.),
 the Gaussian 86(TM) system (copyright 1986, Carnegie Mellon
 University), and the Gaussian 82(TM) system (copyright 1983,
 Carnegie Mellon University). Gaussian is a federally registered
 trademark of Gaussian, Inc.
  
 This software contains proprietary and confidential information,
 including trade secrets, belonging to Gaussian, Inc.
  
 This software is provided under written license and may be
 used, copied, transmitted, or stored only in accord with that
 written license.
  
 The following legend is applicable only to US Government
 contracts under FAR:
  
                    RESTRICTED RIGHTS LEGEND
  
 Use, reproduction and disclosure by the US Government is
 subject to restrictions as set forth in subparagraphs (a)
 and (c) of the Commercial Computer Software - Restricted
 Rights clause in FAR 52.227-19.
  
 Gaussian, Inc.
 340 Quinnipiac St., Bldg. 40, Wallingford CT 06492
  
  
 ---------------------------------------------------------------
 Warning -- This program may not be used in any manner that
 competes with the business of Gaussian, Inc. or will provide
 assistance to any competitor of Gaussian, Inc.  The licensee
 of this program is prohibited from giving any competitor of
 Gaussian, Inc. access to this program.  By using this program,
 the user acknowledges that Gaussian, Inc. is engaged in the
 business of creating and licensing software in the field of
 computational chemistry and represents and warrants to the
 licensee that it is not a competitor of Gaussian, Inc. and that
 it will not use this program in any manner prohibited above.
 ---------------------------------------------------------------
  

 Cite this work as:
 Gaussian 09, Revision B.01,
 M. J. Frisch, G. W. Trucks, H. B. Schlegel, G. E. Scuseria, 
 M. A. Robb, J. R. Cheeseman, G. Scalmani, V. Barone, B. Mennucci, 
 G. A. Petersson, H. Nakatsuji, M. Caricato, X. Li, H. P. Hratchian, 
 A. F. Izmaylov, J. Bloino, G. Zheng, J. L. Sonnenberg, M. Hada, 
 M. Ehara, K. Toyota, R. Fukuda, J. Hasegawa, M. Ishida, T. Nakajima, 
 Y. Honda, O. Kitao, H. Nakai, T. Vreven, J. A. Montgomery, Jr., 
 J. E. Peralta, F. Ogliaro, M. Bearpark, J. J. Heyd, E. Brothers, 
 K. N. Kudin, V. N. Staroverov, T. Keith, R. Kobayashi, J. Normand, 
 K. Raghavachari, A. Rendell, J. C. Burant, S. S. Iyengar, J. Tomasi, 
 M. Cossi, N. Rega, J. M. Millam, M. Klene, J. E. Knox, J. B. Cross, 
 V. Bakken, C. Adamo, J. Jaramillo, R. Gomperts, R. E. Stratmann, 
 O. Yazyev, A. J. Austin, R. Cammi, C. Pomelli, J. W. Ochterski, 
 R. L. Martin, K. Morokuma, V. G. Zakrzewski, G. A. Voth, 
 P. Salvador, J. J. Dannenberg, S. Dapprich, A. D. Daniels, 
 O. Farkas, J. B. Foresman, J. V. Ortiz, J. Cioslowski, 
 and D. J. Fox, Gaussian, Inc., Wallingford CT, 2010.
 
 ******************************************
 Gaussian 09:  EM64L-G09RevB.01 12-Aug-2010
                22-Jan-2018 
 ******************************************
 %nproc=4
 Will use up to    4 processors via shared memory.
 %mem=60gb
 ----------------------------
 #B3LYP/6-31G* fopt test freq
 ----------------------------
 1/14=-1,18=20,19=15,26=3,38=1/1,3;
 2/9=110,12=2,14=103,17=6,18=5,40=1/2;
 3/5=1,6=6,7=1,11=2,16=1,25=1,30=1,71=1,74=-5/1,2,3;
 4//1;
 5/5=2,38=5/2;
 6/7=2,8=2,9=2,10=2,28=1/1;
 7//1,2,3,16;
 1/14=-1,18=20,19=15/3(2);
 2/9=110/2;
 99//99;
 2/9=110/2;
 3/5=1,6=6,7=1,11=2,16=1,25=1,30=1,71=1,74=-5/1,2,3;
 4/5=5,16=3/1;
 5/5=2,38=5/2;
 7//1,2,3,16;
 1/14=-1,18=20,19=15/3(-5);
 2/9=110/2;
 6/7=2,8=2,9=2,10=2,19=2,28=1/1;
 99/9=1/99;
 ------------------------------
 NeoConformation/neopentane.xyz
 ------------------------------
 Symbolic Z-matrix:
 Charge =  0 Multiplicity = 1
 C                     0.05      1.239     0.8962 
 C                     0.        0.        0. 
 C                    -0.0448   -1.2575    0.8704 
 C                    -1.251     0.0566   -0.8791 
 C                     1.2457   -0.0381   -0.8875 
 H                     0.9413    1.1987    1.5225 
 H                     0.0819    2.1349    0.2761 
 H                    -0.8374    1.2662    1.5285 
 H                    -0.9322   -1.2304    1.5027 
 H                    -0.0804   -2.1402    0.2319 
 H                     0.8465   -1.2978    1.4966 
 H                    -1.2191    0.9525   -1.4991 
 H                    -1.2866   -0.8261   -1.5175 
 H                    -2.1384    0.0837   -0.2468 
 H                     2.1369   -0.0784   -0.2613 
 H                     1.21     -0.9208   -1.526 
 H                     1.2776    0.8578   -1.5076 
 

 GradGradGradGradGradGradGradGradGradGradGradGradGradGradGradGradGradGrad
 Berny optimization.
 Initialization pass.
                           ----------------------------
                           !    Initial Parameters    !
                           ! (Angstroms and Degrees)  !
 --------------------------                            --------------------------
 ! Name  Definition              Value          Derivative Info.                !
 --------------------------------------------------------------------------------
 ! R1    R(1,2)                  1.53           estimate D2E/DX2                !
 ! R2    R(1,6)                  1.0901         estimate D2E/DX2                !
 ! R3    R(1,7)                  1.09           estimate D2E/DX2                !
 ! R4    R(1,8)                  1.09           estimate D2E/DX2                !
 ! R5    R(2,3)                  1.53           estimate D2E/DX2                !
 ! R6    R(2,4)                  1.53           estimate D2E/DX2                !
 ! R7    R(2,5)                  1.53           estimate D2E/DX2                !
 ! R8    R(3,9)                  1.09           estimate D2E/DX2                !
 ! R9    R(3,10)                 1.09           estimate D2E/DX2                !
 ! R10   R(3,11)                 1.09           estimate D2E/DX2                !
 ! R11   R(4,12)                 1.09           estimate D2E/DX2                !
 ! R12   R(4,13)                 1.0899         estimate D2E/DX2                !
 ! R13   R(4,14)                 1.09           estimate D2E/DX2                !
 ! R14   R(5,15)                 1.0899         estimate D2E/DX2                !
 ! R15   R(5,16)                 1.09           estimate D2E/DX2                !
 ! R16   R(5,17)                 1.09           estimate D2E/DX2                !
 ! A1    A(2,1,6)              109.4709         estimate D2E/DX2                !
 ! A2    A(2,1,7)              109.4703         estimate D2E/DX2                !
 ! A3    A(2,1,8)              109.4759         estimate D2E/DX2                !
 ! A4    A(6,1,7)              109.4693         estimate D2E/DX2                !
 ! A5    A(6,1,8)              109.4699         estimate D2E/DX2                !
 ! A6    A(7,1,8)              109.471          estimate D2E/DX2                !
 ! A7    A(1,2,3)              109.4698         estimate D2E/DX2                !
 ! A8    A(1,2,4)              109.4704         estimate D2E/DX2                !
 ! A9    A(1,2,5)              109.4717         estimate D2E/DX2                !
 ! A10   A(3,2,4)              109.4706         estimate D2E/DX2                !
 ! A11   A(3,2,5)              109.4733         estimate D2E/DX2                !
 ! A12   A(4,2,5)              109.4715         estimate D2E/DX2                !
 ! A13   A(2,3,9)              109.4767         estimate D2E/DX2                !
 ! A14   A(2,3,10)             109.4689         estimate D2E/DX2                !
 ! A15   A(2,3,11)             109.4667         estimate D2E/DX2                !
 ! A16   A(9,3,10)             109.4729         estimate D2E/DX2                !
 ! A17   A(9,3,11)             109.474          estimate D2E/DX2                !
 ! A18   A(10,3,11)            109.4682         estimate D2E/DX2                !
 ! A19   A(2,4,12)             109.469          estimate D2E/DX2                !
 ! A20   A(2,4,13)             109.4678         estimate D2E/DX2                !
 ! A21   A(2,4,14)             109.4684         estimate D2E/DX2                !
 ! A22   A(12,4,13)            109.478          estimate D2E/DX2                !
 ! A23   A(12,4,14)            109.4734         estimate D2E/DX2                !
 ! A24   A(13,4,14)            109.4707         estimate D2E/DX2                !
 ! A25   A(2,5,15)             109.4741         estimate D2E/DX2                !
 ! A26   A(2,5,16)             109.4686         estimate D2E/DX2                !
 ! A27   A(2,5,17)             109.4722         estimate D2E/DX2                !
 ! A28   A(15,5,16)            109.474          estimate D2E/DX2                !
 ! A29   A(15,5,17)            109.4689         estimate D2E/DX2                !
 ! A30   A(16,5,17)            109.4695         estimate D2E/DX2                !
 ! D1    D(6,1,2,3)             60.0041         estimate D2E/DX2                !
 ! D2    D(6,1,2,4)           -179.998          estimate D2E/DX2                !
 ! D3    D(6,1,2,5)            -59.9979         estimate D2E/DX2                !
 ! D4    D(7,1,2,3)           -179.999          estimate D2E/DX2                !
 ! D5    D(7,1,2,4)            -60.0011         estimate D2E/DX2                !
 ! D6    D(7,1,2,5)             59.999          estimate D2E/DX2                !
 ! D7    D(8,1,2,3)            -59.997          estimate D2E/DX2                !
 ! D8    D(8,1,2,4)             60.0009         estimate D2E/DX2                !
 ! D9    D(8,1,2,5)           -179.9989         estimate D2E/DX2                !
 ! D10   D(1,2,3,9)             59.9972         estimate D2E/DX2                !
 ! D11   D(1,2,3,10)          -179.9988         estimate D2E/DX2                !
 ! D12   D(1,2,3,11)           -60.0067         estimate D2E/DX2                !
 ! D13   D(4,2,3,9)            -60.0005         estimate D2E/DX2                !
 ! D14   D(4,2,3,10)            60.0034         estimate D2E/DX2                !
 ! D15   D(4,2,3,11)           179.9955         estimate D2E/DX2                !
 ! D16   D(5,2,3,9)            179.9983         estimate D2E/DX2                !
 ! D17   D(5,2,3,10)           -59.9978         estimate D2E/DX2                !
 ! D18   D(5,2,3,11)            59.9943         estimate D2E/DX2                !
 ! D19   D(1,2,4,12)            59.9976         estimate D2E/DX2                !
 ! D20   D(1,2,4,13)          -179.9975         estimate D2E/DX2                !
 ! D21   D(1,2,4,14)           -60.002          estimate D2E/DX2                !
 ! D22   D(3,2,4,12)           179.9951         estimate D2E/DX2                !
 ! D23   D(3,2,4,13)           -60.0001         estimate D2E/DX2                !
 ! D24   D(3,2,4,14)            59.9954         estimate D2E/DX2                !
 ! D25   D(5,2,4,12)           -60.0027         estimate D2E/DX2                !
 ! D26   D(5,2,4,13)            60.0022         estimate D2E/DX2                !
 ! D27   D(5,2,4,14)           179.9977         estimate D2E/DX2                !
 ! D28   D(1,2,5,15)            59.9994         estimate D2E/DX2                !
 ! D29   D(1,2,5,16)          -179.9971         estimate D2E/DX2                !
 ! D30   D(1,2,5,17)           -60.0002         estimate D2E/DX2                !
 ! D31   D(3,2,5,15)           -60.0005         estimate D2E/DX2                !
 ! D32   D(3,2,5,16)            60.0031         estimate D2E/DX2                !
 ! D33   D(3,2,5,17)           180.0            estimate D2E/DX2                !
 ! D34   D(4,2,5,15)           179.9989         estimate D2E/DX2                !
 ! D35   D(4,2,5,16)           -59.9976         estimate D2E/DX2                !
 ! D36   D(4,2,5,17)            59.9993         estimate D2E/DX2                !
 --------------------------------------------------------------------------------
 Trust Radius=3.00D-01 FncErr=1.00D-07 GrdErr=1.00D-06
 Number of steps in this run=     92 maximum allowed number of steps=    102.
 GradGradGradGradGradGradGradGradGradGradGradGradGradGradGradGradGradGrad

                          Input orientation:                          
 ---------------------------------------------------------------------
 Center     Atomic      Atomic             Coordinates (Angstroms)
 Number     Number       Type             X           Y           Z
 ---------------------------------------------------------------------
      1          6           0        0.050000    1.239000    0.896200
      2          6           0        0.000000    0.000000    0.000000
      3          6           0       -0.044800   -1.257500    0.870400
      4          6           0       -1.251000    0.056600   -0.879100
      5          6           0        1.245700   -0.038100   -0.887500
      6          1           0        0.941300    1.198700    1.522500
      7          1           0        0.081900    2.134900    0.276100
      8          1           0       -0.837400    1.266200    1.528500
      9          1           0       -0.932200   -1.230400    1.502700
     10          1           0       -0.080400   -2.140200    0.231900
     11          1           0        0.846500   -1.297800    1.496600
     12          1           0       -1.219100    0.952500   -1.499100
     13          1           0       -1.286600   -0.826100   -1.517500
     14          1           0       -2.138400    0.083700   -0.246800
     15          1           0        2.136900   -0.078400   -0.261300
     16          1           0        1.210000   -0.920800   -1.526000
     17          1           0        1.277600    0.857800   -1.507600
 ---------------------------------------------------------------------
                    Distance matrix (angstroms):
                    1          2          3          4          5
     1  C    0.000000
     2  C    1.529966   0.000000
     3  C    2.498432   1.530003   0.000000
     4  C    2.498472   1.530040   2.498505   0.000000
     5  C    2.498453   1.529992   2.498507   2.498509   0.000000
     6  H    1.090088   2.154283   2.725903   3.446484   2.725882
     7  H    1.090036   2.154237   3.446393   2.725883   2.725862
     8  H    1.089964   2.154255   2.725871   2.725937   3.446384
     9  H    2.725894   2.154295   1.089962   2.725981   3.446431
    10  H    3.446345   2.154228   1.090004   2.725905   2.725880
    11  H    2.725848   2.154219   1.090030   3.446427   2.725828
    12  H    2.725832   2.154243   3.446391   1.089979   2.725909
    13  H    3.446315   2.154202   2.725847   1.089946   2.725874
    14  H    2.725851   2.154222   2.725824   1.089962   3.446370
    15  H    2.725894   2.154244   2.725956   3.446414   1.089949
    16  H    3.446359   2.154216   2.725917   2.725860   1.090007
    17  H    2.725907   2.154284   3.446465   2.725941   1.090036
                    6          7          8          9         10
     6  H    0.000000
     7  H    1.780043   0.000000
     8  H    1.779990   1.779960   0.000000
     9  H    3.067722   3.722659   2.498532   0.000000
    10  H    3.722603   4.278408   3.722604   1.779953   0.000000
    11  H    2.498434   3.722588   3.067675   1.779987   1.779957
    12  H    3.722635   2.498401   3.067648   3.722656   3.722606
    13  H    4.278429   3.722541   3.722582   3.067681   2.498435
    14  H    3.722660   3.067667   2.498519   2.498505   3.067613
    15  H    2.498477   3.067657   3.722606   3.722657   3.067684
    16  H    3.722611   3.722563   4.278409   3.722620   2.498456
    17  H    3.067705   2.498453   3.722623   4.278516   3.722637
                   11         12         13         14         15
    11  H    0.000000
    12  H    4.278408   0.000000
    13  H    3.722555   1.779975   0.000000
    14  H    3.722582   1.779939   1.779881   0.000000
    15  H    2.498456   3.722585   3.722559   4.278397   0.000000
    16  H    3.067633   3.067654   2.498410   3.722520   1.779957
    17  H    3.722590   2.498510   3.067693   3.722621   1.779924
                   16         17
    16  H    0.000000
    17  H    1.779979   0.000000
 Stoichiometry    C5H12
 Framework group  C1[X(C5H12)]
 Deg. of freedom    45
 Full point group                 C1      NOp   1
 Largest Abelian subgroup         C1      NOp   1
 Largest concise Abelian subgroup C1      NOp   1
                         Standard orientation:                         
 ---------------------------------------------------------------------
 Center     Atomic      Atomic             Coordinates (Angstroms)
 Number     Number       Type             X           Y           Z
 ---------------------------------------------------------------------
      1          6           0        0.022140    0.441436    1.464730
      2          6           0       -0.000005    0.000010   -0.000005
      3          6           0        1.265237    0.497605   -0.701769
      4          6           0       -0.055742   -1.527338   -0.071572
      5          6           0       -1.231604    0.588254   -0.691386
      6          1           0        0.061815    1.529607    1.515728
      7          1           0       -0.879258    0.086918    1.964708
      8          1           0        0.899518    0.022422    1.957333
      9          1           0        2.142664    0.078598   -0.209253
     10          1           0        1.249435    0.183128   -1.745303
     11          1           0        1.304840    1.585723   -0.650815
     12          1           0       -0.957068   -1.881802    0.428450
     13          1           0       -0.071472   -1.841762   -1.115062
     14          1           0        0.821685   -1.946345    0.420943
     15          1           0       -1.191952    1.676287   -0.640411
     16          1           0       -1.247357    0.273692   -1.734899
     17          1           0       -2.133002    0.233737   -0.191408
 ---------------------------------------------------------------------
 Rotational constants (GHZ):      4.4992828      4.4992731      4.4991576
 Standard basis: 6-31G(d) (6D, 7F)
 There are    99 symmetry adapted basis functions of A   symmetry.
 Integral buffers will be    131072 words long.
 Raffenetti 2 integral format.
 Two-electron integral symmetry is turned on.
    99 basis functions,   188 primitive gaussians,    99 cartesian basis functions
    21 alpha electrons       21 beta electrons
       nuclear repulsion energy       199.5378941938 Hartrees.
 NAtoms=   17 NActive=   17 NUniq=   17 SFac= 1.00D+00 NAtFMM=   50 NAOKFM=F Big=F
 One-electron integrals computed using PRISM.
 NBasis=    99 RedAO= T  NBF=    99
 NBsUse=    99 1.00D-06 NBFU=    99
 Harris functional with IExCor=  402 diagonalized for initial guess.
 ExpMin= 1.61D-01 ExpMax= 3.05D+03 ExpMxC= 4.57D+02 IAcc=1 IRadAn=         1 AccDes= 0.00D+00
 HarFok:  IExCor=  402 AccDes= 0.00D+00 IRadAn=         1 IDoV= 1
 ScaDFX=  1.000000  1.000000  1.000000  1.000000
 FoFCou: FMM=F IPFlag=           0 FMFlag=      100000 FMFlg1=           0
         NFxFlg=           0 DoJE=T BraDBF=F KetDBF=T FulRan=T
         Omega=  0.000000  0.000000  1.000000  0.000000  0.000000 ICntrl=     500 IOpCl=  0
         NMat0=    1 NMatS0=    1 NMatT0=    0 NMatD0=    1 NMtDS0=    0 NMtDT0=    0
         I1Cent=           4 NGrid=           0.
 Petite list used in FoFCou.
 Initial guess orbital symmetries:
       Occupied  (A) (A) (A) (A) (A) (A) (A) (A) (A) (A) (A) (A)
                 (A) (A) (A) (A) (A) (A) (A) (A) (A)
       Virtual   (A) (A) (A) (A) (A) (A) (A) (A) (A) (A) (A) (A)
                 (A) (A) (A) (A) (A) (A) (A) (A) (A) (A) (A) (A)
                 (A) (A) (A) (A) (A) (A) (A) (A) (A) (A) (A) (A)
                 (A) (A) (A) (A) (A) (A) (A) (A) (A) (A) (A) (A)
                 (A) (A) (A) (A) (A) (A) (A) (A) (A) (A) (A) (A)
                 (A) (A) (A) (A) (A) (A) (A) (A) (A) (A) (A) (A)
                 (A) (A) (A) (A) (A) (A)
 The electronic state of the initial guess is 1-A.
 Requested convergence on RMS density matrix=1.00D-08 within 128 cycles.
 Requested convergence on MAX density matrix=1.00D-06.
 Requested convergence on             energy=1.00D-06.
 No special actions if energy rises.
 Keep R1 ints in memory in canonical form, NReq=13361527.
 Integral accuracy reduced to 1.0D-05 until final iterations.
 Initial convergence to 1.0D-05 achieved.  Increase integral accuracy.
 SCF Done:  E(RB3LYP) =  -197.770633381     A.U. after   12 cycles
             Convg  =    0.2838D-08             -V/T =  2.0094

 **********************************************************************

            Population analysis using the SCF density.

 **********************************************************************

 Orbital symmetries:
       Occupied  (A) (A) (A) (A) (A) (A) (A) (A) (A) (A) (A) (A)
                 (A) (A) (A) (A) (A) (A) (A) (A) (A)
       Virtual   (A) (A) (A) (A) (A) (A) (A) (A) (A) (A) (A) (A)
                 (A) (A) (A) (A) (A) (A) (A) (A) (A) (A) (A) (A)
                 (A) (A) (A) (A) (A) (A) (A) (A) (A) (A) (A) (A)
                 (A) (A) (A) (A) (A) (A) (A) (A) (A) (A) (A) (A)
                 (A) (A) (A) (A) (A) (A) (A) (A) (A) (A) (A) (A)
                 (A) (A) (A) (A) (A) (A) (A) (A) (A) (A) (A) (A)
                 (A) (A) (A) (A) (A) (A)
 The electronic state is 1-A.
 Alpha  occ. eigenvalues --  -10.18489 -10.16443 -10.16442 -10.16442 -10.16440
 Alpha  occ. eigenvalues --   -0.81829  -0.67973  -0.67973  -0.67972  -0.52251
 Alpha  occ. eigenvalues --   -0.44528  -0.44528  -0.44528  -0.39917  -0.39916
 Alpha  occ. eigenvalues --   -0.36157  -0.36156  -0.36155  -0.31233  -0.31232
 Alpha  occ. eigenvalues --   -0.31230
 Alpha virt. eigenvalues --    0.07352   0.13895   0.13896   0.13897   0.16924
 Alpha virt. eigenvalues --    0.16925   0.16926   0.18626   0.18627   0.22455
 Alpha virt. eigenvalues --    0.23093   0.23093   0.23093   0.25172   0.25174
 Alpha virt. eigenvalues --    0.25175   0.51321   0.51322   0.52069   0.52069
 Alpha virt. eigenvalues --    0.52070   0.63146   0.63873   0.63875   0.63877
 Alpha virt. eigenvalues --    0.76037   0.76038   0.76039   0.86671   0.86673
 Alpha virt. eigenvalues --    0.86674   0.90832   0.90833   0.90834   0.91647
 Alpha virt. eigenvalues --    0.92690   0.92691   0.92695   0.95592   0.96064
 Alpha virt. eigenvalues --    0.96064   1.00040   1.00043   1.00045   1.39698
 Alpha virt. eigenvalues --    1.39699   1.51248   1.51250   1.51251   1.69767
 Alpha virt. eigenvalues --    1.74262   1.74263   1.74264   1.88144   1.88148
 Alpha virt. eigenvalues --    1.88151   2.11773   2.11775   2.12513   2.12514
 Alpha virt. eigenvalues --    2.12515   2.25427   2.25429   2.25432   2.26595
 Alpha virt. eigenvalues --    2.27697   2.27699   2.27702   2.58982   2.58983
 Alpha virt. eigenvalues --    2.72758   2.72758   2.72761   4.17542   4.31910
 Alpha virt. eigenvalues --    4.31911   4.31912   4.67209
          Condensed to atoms (all electrons):
              1          2          3          4          5          6
     1  C    5.137203   0.397274  -0.065321  -0.065331  -0.065333   0.367717
     2  C    0.397274   4.709167   0.397250   0.397262   0.397285  -0.031438
     3  C   -0.065321   0.397250   5.137109  -0.065321  -0.065331  -0.005522
     4  C   -0.065331   0.397262  -0.065321   5.137068  -0.065320   0.006414
     5  C   -0.065333   0.397285  -0.065331  -0.065320   5.137075  -0.005521
     6  H    0.367717  -0.031438  -0.005522   0.006414  -0.005521   0.582380
     7  H    0.367719  -0.031448   0.006415  -0.005523  -0.005520  -0.029291
     8  H    0.367733  -0.031456  -0.005520  -0.005516   0.006414  -0.029299
     9  H   -0.005519  -0.031443   0.367733  -0.005519   0.006413  -0.000211
    10  H    0.006415  -0.031452   0.367725  -0.005521  -0.005517  -0.000065
    11  H   -0.005520  -0.031451   0.367724   0.006414  -0.005520   0.004762
    12  H   -0.005519  -0.031455   0.006413   0.367744  -0.005517  -0.000065
    13  H    0.006414  -0.031449  -0.005516   0.367725  -0.005520  -0.000238
    14  H   -0.005521  -0.031447  -0.005519   0.367740   0.006414  -0.000065
    15  H   -0.005519  -0.031447  -0.005519   0.006414   0.367732   0.004762
    16  H    0.006414  -0.031442  -0.005520  -0.005521   0.367721  -0.000065
    17  H   -0.005518  -0.031448   0.006414  -0.005521   0.367728  -0.000211
              7          8          9         10         11         12
     1  C    0.367719   0.367733  -0.005519   0.006415  -0.005520  -0.005519
     2  C   -0.031448  -0.031456  -0.031443  -0.031452  -0.031451  -0.031455
     3  C    0.006415  -0.005520   0.367733   0.367725   0.367724   0.006413
     4  C   -0.005523  -0.005516  -0.005519  -0.005521   0.006414   0.367744
     5  C   -0.005520   0.006414   0.006413  -0.005517  -0.005520  -0.005517
     6  H   -0.029291  -0.029299  -0.000211  -0.000065   0.004762  -0.000065
     7  H    0.582367  -0.029301  -0.000065  -0.000238  -0.000065   0.004762
     8  H   -0.029301   0.582339   0.004760  -0.000065  -0.000211  -0.000211
     9  H   -0.000065   0.004760   0.582347  -0.029301  -0.029297  -0.000065
    10  H   -0.000238  -0.000065  -0.029301   0.582378  -0.029298  -0.000065
    11  H   -0.000065  -0.000211  -0.029297  -0.029298   0.582375  -0.000238
    12  H    0.004762  -0.000211  -0.000065  -0.000065  -0.000238   0.582351
    13  H   -0.000065  -0.000065  -0.000211   0.004761  -0.000065  -0.029295
    14  H   -0.000211   0.004761   0.004761  -0.000211  -0.000065  -0.029298
    15  H   -0.000211  -0.000065  -0.000065  -0.000211   0.004762  -0.000065
    16  H   -0.000065  -0.000238  -0.000065   0.004762  -0.000211  -0.000211
    17  H    0.004762  -0.000065  -0.000238  -0.000065  -0.000065   0.004761
             13         14         15         16         17
     1  C    0.006414  -0.005521  -0.005519   0.006414  -0.005518
     2  C   -0.031449  -0.031447  -0.031447  -0.031442  -0.031448
     3  C   -0.005516  -0.005519  -0.005519  -0.005520   0.006414
     4  C    0.367725   0.367740   0.006414  -0.005521  -0.005521
     5  C   -0.005520   0.006414   0.367732   0.367721   0.367728
     6  H   -0.000238  -0.000065   0.004762  -0.000065  -0.000211
     7  H   -0.000065  -0.000211  -0.000211  -0.000065   0.004762
     8  H   -0.000065   0.004761  -0.000065  -0.000238  -0.000065
     9  H   -0.000211   0.004761  -0.000065  -0.000065  -0.000238
    10  H    0.004761  -0.000211  -0.000211   0.004762  -0.000065
    11  H   -0.000065  -0.000065   0.004762  -0.000211  -0.000065
    12  H   -0.029295  -0.029298  -0.000065  -0.000211   0.004761
    13  H    0.582363  -0.029302  -0.000065   0.004762  -0.000211
    14  H   -0.029302   0.582356  -0.000238  -0.000065  -0.000065
    15  H   -0.000065  -0.000238   0.582348  -0.029295  -0.029308
    16  H    0.004762  -0.000065  -0.029295   0.582369  -0.029297
    17  H   -0.000211  -0.000065  -0.029308  -0.029297   0.582383
 Mulliken atomic charges:
              1
     1  C   -0.427788
     2  C    0.079137
     3  C   -0.427695
     4  C   -0.427686
     5  C   -0.427682
     6  H    0.135957
     7  H    0.135979
     8  H    0.136006
     9  H    0.135985
    10  H    0.135968
    11  H    0.135970
    12  H    0.135973
    13  H    0.135977
    14  H    0.135977
    15  H    0.135990
    16  H    0.135966
    17  H    0.135965
 Sum of Mulliken atomic charges =   0.00000
 Mulliken charges with hydrogens summed into heavy atoms:
              1
     1  C   -0.019846
     2  C    0.079137
     3  C   -0.019772
     4  C   -0.019759
     5  C   -0.019760
 Sum of Mulliken charges with hydrogens summed into heavy atoms =   0.00000
 Electronic spatial extent (au):  <R**2>=            477.9026
 Charge=              0.0000 electrons
 Dipole moment (field-independent basis, Debye):
    X=              0.0000    Y=              0.0000    Z=              0.0000  Tot=              0.0001
 Quadrupole moment (field-independent basis, Debye-Ang):
   XX=            -35.1520   YY=            -35.1525   ZZ=            -35.1524
   XY=             -0.0004   XZ=              0.0001   YZ=             -0.0002
 Traceless Quadrupole moment (field-independent basis, Debye-Ang):
   XX=              0.0003   YY=             -0.0002   ZZ=             -0.0001
   XY=             -0.0004   XZ=              0.0001   YZ=             -0.0002
 Octapole moment (field-independent basis, Debye-Ang**2):
  XXX=             -0.1787  YYY=              3.5999  ZZZ=             -2.8183  XYY=              0.2724
  XXY=             -1.9253  XXZ=              2.4819  XZZ=             -0.0930  YZZ=             -1.6754
  YYZ=              0.3365  XYZ=             -0.0765
 Hexadecapole moment (field-independent basis, Debye-Ang**3):
 XXXX=           -221.9255 YYYY=           -221.5714 ZZZZ=           -221.8262 XXXY=             -0.0421
 XXXZ=             -0.0575 YYYX=              0.0453 YYYZ=              0.0676 ZZZX=              0.0190
 ZZZY=              0.4562 XXYY=            -74.2857 XXZZ=            -74.0227 YYZZ=            -74.3791
 XXYZ=             -0.5260 YYXZ=              0.0404 ZZXY=             -0.0066
 N-N= 1.995378941938D+02 E-N=-8.553609702787D+02  KE= 1.959295247535D+02
 Calling FoFJK, ICntrl=      2127 FMM=F ISym2X=0 I1Cent= 0 IOpClX= 0 NMat=1 NMatS=1 NMatT=0.
 ***** Axes restored to original set *****
 -------------------------------------------------------------------
 Center     Atomic                   Forces (Hartrees/Bohr)
 Number     Number              X              Y              Z
 -------------------------------------------------------------------
      1        6          -0.000129125   -0.006091102   -0.004452642
      2        6          -0.000080548   -0.000031752    0.000008165
      3        6           0.000252455    0.006187120   -0.004296760
      4        6           0.006140100   -0.000252191    0.004324693
      5        6          -0.006148162    0.000203062    0.004271217
      6        1           0.002317570    0.003736626    0.004306942
      7        1           0.000207018    0.006056395    0.001271889
      8        1          -0.002064129    0.003921781    0.004361617
      9        1          -0.002360472   -0.003798286    0.004253678
     10        1          -0.000223050   -0.006080418    0.001075693
     11        1           0.002054539   -0.003999544    0.004250834
     12        1          -0.003758300    0.002421384   -0.004227553
     13        1          -0.003939199   -0.002068534   -0.004302266
     14        1          -0.006066660    0.000246172   -0.001138665
     15        1           0.006099808   -0.000211331   -0.001155399
     16        1           0.003773588   -0.002309159   -0.004299831
     17        1           0.003924566    0.002069777   -0.004251611
 -------------------------------------------------------------------
 Cartesian Forces:  Max     0.006187120 RMS     0.003663530

 GradGradGradGradGradGradGradGradGradGradGradGradGradGradGradGradGradGrad
 Berny optimization.
 Internal  Forces:  Max     0.009399231 RMS     0.003621745
 Search for a local minimum.
 Step number   1 out of a maximum of   92
 All quantities printed in internal units (Hartrees-Bohrs-Radians)
 Mixed Optimization -- RFO/linear search
 Second derivative matrix not updated -- first step.
 ITU=  0
     Eigenvalues ---    0.00369   0.00369   0.00369   0.00370   0.04847
     Eigenvalues ---    0.04847   0.04848   0.05805   0.05806   0.05806
     Eigenvalues ---    0.05806   0.05806   0.05806   0.05806   0.05807
     Eigenvalues ---    0.14444   0.14444   0.16000   0.16000   0.16000
     Eigenvalues ---    0.16000   0.16000   0.16000   0.16000   0.16000
     Eigenvalues ---    0.16000   0.16000   0.16000   0.16000   0.29420
     Eigenvalues ---    0.29423   0.29424   0.29427   0.34802   0.34808
     Eigenvalues ---    0.34808   0.34809   0.34812   0.34812   0.34815
     Eigenvalues ---    0.34817   0.34817   0.34817   0.34819   0.34819
 RFO step:  Lambda=-4.85894592D-03 EMin= 3.68580287D-03
 Linear search not attempted -- first point.
 Iteration  1 RMS(Cart)=  0.03461440 RMS(Int)=  0.00033504
 Iteration  2 RMS(Cart)=  0.00028258 RMS(Int)=  0.00021106
 Iteration  3 RMS(Cart)=  0.00000004 RMS(Int)=  0.00021106
 Variable       Old X    -DE/DX   Delta X   Delta X   Delta X     New X
                                 (Linear)    (Quad)   (Total)
    R1        2.89122   0.00940   0.00000   0.03142   0.03142   2.92264
    R2        2.05997   0.00423   0.00000   0.01199   0.01199   2.07195
    R3        2.05987   0.00426   0.00000   0.01207   0.01207   2.07194
    R4        2.05973   0.00431   0.00000   0.01221   0.01221   2.07194
    R5        2.89129   0.00934   0.00000   0.03121   0.03121   2.92250
    R6        2.89136   0.00932   0.00000   0.03115   0.03115   2.92251
    R7        2.89127   0.00939   0.00000   0.03139   0.03139   2.92265
    R8        2.05973   0.00429   0.00000   0.01216   0.01216   2.07189
    R9        2.05981   0.00430   0.00000   0.01218   0.01218   2.07199
   R10        2.05986   0.00427   0.00000   0.01211   0.01211   2.07196
   R11        2.05976   0.00428   0.00000   0.01213   0.01213   2.07189
   R12        2.05970   0.00433   0.00000   0.01225   0.01225   2.07195
   R13        2.05973   0.00429   0.00000   0.01214   0.01214   2.07187
   R14        2.05970   0.00433   0.00000   0.01226   0.01226   2.07197
   R15        2.05982   0.00426   0.00000   0.01208   0.01208   2.07190
   R16        2.05987   0.00424   0.00000   0.01200   0.01200   2.07187
    A1        1.91063   0.00460   0.00000   0.02795   0.02754   1.93817
    A2        1.91062   0.00463   0.00000   0.02813   0.02772   1.93834
    A3        1.91072   0.00461   0.00000   0.02792   0.02752   1.93824
    A4        1.91060  -0.00461   0.00000  -0.02784  -0.02822   1.88238
    A5        1.91061  -0.00461   0.00000  -0.02801  -0.02839   1.88222
    A6        1.91063  -0.00463   0.00000  -0.02816  -0.02854   1.88209
    A7        1.91061   0.00003   0.00000   0.00023   0.00023   1.91083
    A8        1.91062   0.00000   0.00000   0.00004   0.00004   1.91066
    A9        1.91064  -0.00002   0.00000  -0.00008  -0.00008   1.91056
   A10        1.91062  -0.00002   0.00000  -0.00016  -0.00016   1.91046
   A11        1.91067  -0.00001   0.00000  -0.00007  -0.00007   1.91060
   A12        1.91064   0.00002   0.00000   0.00005   0.00005   1.91068
   A13        1.91073   0.00456   0.00000   0.02761   0.02722   1.93794
   A14        1.91059   0.00456   0.00000   0.02766   0.02726   1.93785
   A15        1.91055   0.00463   0.00000   0.02811   0.02771   1.93826
   A16        1.91066  -0.00457   0.00000  -0.02776  -0.02813   1.88253
   A17        1.91068  -0.00459   0.00000  -0.02782  -0.02820   1.88248
   A18        1.91058  -0.00459   0.00000  -0.02780  -0.02818   1.88240
   A19        1.91059   0.00454   0.00000   0.02757   0.02718   1.93777
   A20        1.91057   0.00456   0.00000   0.02767   0.02728   1.93785
   A21        1.91058   0.00459   0.00000   0.02781   0.02741   1.93800
   A22        1.91075  -0.00454   0.00000  -0.02751  -0.02788   1.88287
   A23        1.91067  -0.00457   0.00000  -0.02777  -0.02814   1.88253
   A24        1.91062  -0.00458   0.00000  -0.02777  -0.02815   1.88248
   A25        1.91068   0.00458   0.00000   0.02777   0.02737   1.93805
   A26        1.91059   0.00460   0.00000   0.02789   0.02749   1.93808
   A27        1.91065   0.00458   0.00000   0.02782   0.02742   1.93807
   A28        1.91068  -0.00459   0.00000  -0.02789  -0.02827   1.88242
   A29        1.91059  -0.00459   0.00000  -0.02788  -0.02825   1.88234
   A30        1.91060  -0.00458   0.00000  -0.02772  -0.02810   1.88250
    D1        1.04727   0.00000   0.00000   0.00033   0.00033   1.04760
    D2       -3.14156  -0.00001   0.00000   0.00030   0.00030  -3.14126
    D3       -1.04716   0.00000   0.00000   0.00034   0.00033  -1.04683
    D4       -3.14158   0.00001   0.00000   0.00058   0.00058  -3.14099
    D5       -1.04722   0.00001   0.00000   0.00055   0.00055  -1.04667
    D6        1.04718   0.00002   0.00000   0.00058   0.00058   1.04776
    D7       -1.04714   0.00000   0.00000   0.00042   0.00042  -1.04672
    D8        1.04721   0.00000   0.00000   0.00039   0.00039   1.04761
    D9       -3.14157   0.00001   0.00000   0.00042   0.00042  -3.14115
   D10        1.04715   0.00001   0.00000   0.00049   0.00049   1.04764
   D11       -3.14157   0.00000   0.00000   0.00035   0.00034  -3.14123
   D12       -1.04732   0.00001   0.00000   0.00044   0.00044  -1.04687
   D13       -1.04721   0.00001   0.00000   0.00040   0.00040  -1.04680
   D14        1.04726   0.00000   0.00000   0.00026   0.00025   1.04751
   D15        3.14151   0.00000   0.00000   0.00035   0.00035  -3.14132
   D16        3.14156   0.00000   0.00000   0.00049   0.00049  -3.14113
   D17       -1.04716  -0.00001   0.00000   0.00034   0.00034  -1.04682
   D18        1.04710   0.00000   0.00000   0.00043   0.00043   1.04753
   D19        1.04716  -0.00001   0.00000  -0.00011  -0.00011   1.04705
   D20       -3.14155  -0.00001   0.00000   0.00003   0.00003  -3.14152
   D21       -1.04723  -0.00001   0.00000  -0.00001  -0.00001  -1.04724
   D22        3.14151   0.00000   0.00000   0.00010   0.00009  -3.14158
   D23       -1.04720   0.00001   0.00000   0.00023   0.00023  -1.04696
   D24        1.04712   0.00001   0.00000   0.00019   0.00019   1.04731
   D25       -1.04724   0.00000   0.00000  -0.00006  -0.00006  -1.04731
   D26        1.04724   0.00000   0.00000   0.00008   0.00008   1.04731
   D27        3.14155   0.00000   0.00000   0.00004   0.00004   3.14159
   D28        1.04719   0.00000   0.00000  -0.00087  -0.00087   1.04632
   D29       -3.14154  -0.00001   0.00000  -0.00093  -0.00093   3.14071
   D30       -1.04720   0.00000   0.00000  -0.00077  -0.00077  -1.04797
   D31       -1.04721  -0.00002   0.00000  -0.00105  -0.00105  -1.04825
   D32        1.04725  -0.00002   0.00000  -0.00112  -0.00112   1.04614
   D33        3.14159  -0.00001   0.00000  -0.00095  -0.00095   3.14064
   D34        3.14157   0.00000   0.00000  -0.00084  -0.00084   3.14073
   D35       -1.04716  -0.00001   0.00000  -0.00091  -0.00091  -1.04806
   D36        1.04719   0.00000   0.00000  -0.00074  -0.00074   1.04645
         Item               Value     Threshold  Converged?
 Maximum Force            0.009399     0.000450     NO 
 RMS     Force            0.003622     0.000300     NO 
 Maximum Displacement     0.075770     0.001800     NO 
 RMS     Displacement     0.034754     0.001200     NO 
 Predicted change in Energy=-2.488131D-03
 GradGradGradGradGradGradGradGradGradGradGradGradGradGradGradGradGradGrad

                          Input orientation:                          
 ---------------------------------------------------------------------
 Center     Atomic      Atomic             Coordinates (Angstroms)
 Number     Number       Type             X           Y           Z
 ---------------------------------------------------------------------
      1          6           0        0.050688    1.252521    0.905879
      2          6           0       -0.000024    0.000008    0.000013
      3          6           0       -0.045391   -1.271211    0.879597
      4          6           0       -1.264551    0.057212   -0.888490
      5          6           0        1.259189   -0.038571   -0.897132
      6          1           0        0.939362    1.238447    1.547923
      7          1           0        0.082963    2.170586    0.307328
      8          1           0       -0.831652    1.305416    1.554587
      9          1           0       -0.930270   -1.270496    1.526956
     10          1           0       -0.081534   -2.176204    0.261629
     11          1           0        0.840888   -1.337775    1.521665
     12          1           0       -1.258665    0.950577   -1.524065
     13          1           0       -1.326033   -0.820736   -1.542387
     14          1           0       -2.174224    0.085459   -0.277129
     15          1           0        2.172633   -0.078635   -0.291993
     16          1           0        1.250090   -0.918795   -1.550751
     17          1           0        1.316530    0.852298   -1.533631
 ---------------------------------------------------------------------
                    Distance matrix (angstroms):
                    1          2          3          4          5
     1  C    0.000000
     2  C    1.546594   0.000000
     3  C    2.525696   1.546520   0.000000
     4  C    2.525545   1.546526   2.525310   0.000000
     5  C    2.525518   1.546601   2.525489   2.525572   0.000000
     6  H    1.096431   2.193673   2.777549   3.491227   2.776933
     7  H    1.096425   2.193795   3.491407   2.777071   2.777518
     8  H    1.096423   2.193717   2.777197   2.777417   3.491252
     9  H    2.777342   2.193421   1.096397   2.776497   3.491071
    10  H    3.491232   2.193396   1.096451   2.776771   2.776642
    11  H    2.777273   2.193678   1.096436   3.491091   2.777317
    12  H    2.776725   2.193302   3.490840   1.096398   2.776878
    13  H    3.491098   2.193381   2.776505   1.096428   2.776961
    14  H    2.777008   2.193457   2.776778   1.096387   3.491147
    15  H    2.776604   2.193602   2.777497   3.491204   1.096439
    16  H    3.491161   2.193594   2.776519   2.777517   1.096401
    17  H    2.777363   2.193576   3.491101   2.776752   1.096388
                    6          7          8          9         10
     6  H    0.000000
     7  H    1.772393   0.000000
     8  H    1.772293   1.772200   0.000000
     9  H    3.129019   3.788822   2.577947   0.000000
    10  H    3.789014   4.350141   3.788944   1.772488   0.000000
    11  H    2.578237   3.789150   3.128088   1.772443   1.772433
    12  H    3.788312   2.577284   3.128314   3.788104   3.788285
    13  H    4.349974   3.788763   3.788956   3.127264   2.576926
    14  H    3.788749   3.127977   2.577980   2.576967   3.128055
    15  H    2.577005   3.128083   3.788296   3.789079   3.128508
    16  H    3.788407   3.789316   4.350160   3.788132   2.576630
    17  H    3.128473   2.578507   3.789075   4.349892   3.788056
                   11         12         13         14         15
    11  H    0.000000
    12  H    4.349845   0.000000
    13  H    3.788310   1.772688   0.000000
    14  H    3.788424   1.772434   1.772426   0.000000
    15  H    2.578437   3.788283   3.788782   4.349979   0.000000
    16  H    3.127736   3.128756   2.578002   3.789005   1.772407
    17  H    3.789128   2.577088   3.127661   3.788430   1.772347
                   16         17
    16  H    0.000000
    17  H    1.772421   0.000000
 Stoichiometry    C5H12
 Framework group  C1[X(C5H12)]
 Deg. of freedom    45
 Full point group                 C1      NOp   1
 Largest Abelian subgroup         C1      NOp   1
 Largest concise Abelian subgroup C1      NOp   1
                         Standard orientation:                         
 ---------------------------------------------------------------------
 Center     Atomic      Atomic             Coordinates (Angstroms)
 Number     Number       Type             X           Y           Z
 ---------------------------------------------------------------------
      1          6           0        1.397052   -0.484926   -0.452906
      2          6           0        0.000013   -0.000024   -0.000019
      3          6           0       -1.004304   -0.160240   -1.165094
      4          6           0       -0.472241   -0.843656    1.207045
      5          6           0        0.079432    1.488838    0.411025
      6          1           0        1.757520    0.097333   -1.309176
      7          1           0        2.130638   -0.383082    0.355565
      8          1           0        1.370295   -1.539655   -0.751191
      9          1           0       -1.081037   -1.208469   -1.477208
     10          1           0       -2.005224    0.177208   -0.870996
     11          1           0       -0.693752    0.428198   -2.036570
     12          1           0        0.222932   -0.748521    2.049526
     13          1           0       -1.462444   -0.520621    1.549536
     14          1           0       -0.537677   -1.905849    0.943366
     15          1           0        0.413349    2.111458   -0.427439
     16          1           0       -0.899487    1.860164    0.736494
     17          1           0        0.785172    1.631888    1.237787
 ---------------------------------------------------------------------
 Rotational constants (GHZ):      4.3823189      4.3819433      4.3814024
 Standard basis: 6-31G(d) (6D, 7F)
 There are    99 symmetry adapted basis functions of A   symmetry.
 Integral buffers will be    131072 words long.
 Raffenetti 2 integral format.
 Two-electron integral symmetry is turned on.
    99 basis functions,   188 primitive gaussians,    99 cartesian basis functions
    21 alpha electrons       21 beta electrons
       nuclear repulsion energy       197.1620966455 Hartrees.
 NAtoms=   17 NActive=   17 NUniq=   17 SFac= 1.00D+00 NAtFMM=   50 NAOKFM=F Big=F
 One-electron integrals computed using PRISM.
 NBasis=    99 RedAO= T  NBF=    99
 NBsUse=    99 1.00D-06 NBFU=    99
 Initial guess read from the read-write file.
 B after Tr=     0.000000    0.000000    0.000000
         Rot=    1.000000    0.000000    0.000000    0.000000 Ang=   0.00 deg.
 Initial guess orbital symmetries:
       Occupied  (A) (A) (A) (A) (A) (A) (A) (A) (A) (A) (A) (A)
                 (A) (A) (A) (A) (A) (A) (A) (A) (A)
       Virtual   (A) (A) (A) (A) (A) (A) (A) (A) (A) (A) (A) (A)
                 (A) (A) (A) (A) (A) (A) (A) (A) (A) (A) (A) (A)
                 (A) (A) (A) (A) (A) (A) (A) (A) (A) (A) (A) (A)
                 (A) (A) (A) (A) (A) (A) (A) (A) (A) (A) (A) (A)
                 (A) (A) (A) (A) (A) (A) (A) (A) (A) (A) (A) (A)
                 (A) (A) (A) (A) (A) (A) (A) (A) (A) (A) (A) (A)
                 (A) (A) (A) (A) (A) (A)
 Harris functional with IExCor=  402 diagonalized for initial guess.
 ExpMin= 1.61D-01 ExpMax= 3.05D+03 ExpMxC= 4.57D+02 IAcc=1 IRadAn=         1 AccDes= 0.00D+00
 HarFok:  IExCor=  402 AccDes= 0.00D+00 IRadAn=         1 IDoV= 1
 ScaDFX=  1.000000  1.000000  1.000000  1.000000
 FoFCou: FMM=F IPFlag=           0 FMFlag=      100000 FMFlg1=           0
         NFxFlg=           0 DoJE=T BraDBF=F KetDBF=T FulRan=T
         Omega=  0.000000  0.000000  1.000000  0.000000  0.000000 ICntrl=     500 IOpCl=  0
         NMat0=    1 NMatS0=    1 NMatT0=    0 NMatD0=    1 NMtDS0=    0 NMtDT0=    0
         I1Cent=           4 NGrid=           0.
 Petite list used in FoFCou.
 Requested convergence on RMS density matrix=1.00D-08 within 128 cycles.
 Requested convergence on MAX density matrix=1.00D-06.
 Requested convergence on             energy=1.00D-06.
 No special actions if energy rises.
 Keep R1 ints in memory in canonical form, NReq=13361527.
 Integral accuracy reduced to 1.0D-05 until final iterations.
 Initial convergence to 1.0D-05 achieved.  Increase integral accuracy.
 SCF Done:  E(RB3LYP) =  -197.772894429     A.U. after   12 cycles
             Convg  =    0.8276D-08             -V/T =  2.0106
 Calling FoFJK, ICntrl=      2127 FMM=F ISym2X=0 I1Cent= 0 IOpClX= 0 NMat=1 NMatS=1 NMatT=0.
 ***** Axes restored to original set *****
 -------------------------------------------------------------------
 Center     Atomic                   Forces (Hartrees/Bohr)
 Number     Number              X              Y              Z
 -------------------------------------------------------------------
      1        6          -0.000150196   -0.003207056   -0.002334606
      2        6           0.000064160    0.000114558    0.000036129
      3        6           0.000136257    0.003247381   -0.002223907
      4        6           0.003331907   -0.000185079    0.002327677
      5        6          -0.003228731    0.000071987    0.002375285
      6        1           0.000257346    0.000043943    0.000236607
      7        1           0.000017714    0.000342756   -0.000092324
      8        1          -0.000271726    0.000103938    0.000263980
      9        1          -0.000251241   -0.000119348    0.000240478
     10        1          -0.000004321   -0.000347333   -0.000124029
     11        1           0.000238540   -0.000099851    0.000222014
     12        1          -0.000133846    0.000259435   -0.000325206
     13        1          -0.000127417   -0.000214205   -0.000301615
     14        1          -0.000377380    0.000022272    0.000130525
     15        1           0.000339861   -0.000027007    0.000110466
     16        1           0.000079019   -0.000265982   -0.000264761
     17        1           0.000080055    0.000259589   -0.000276714
 -------------------------------------------------------------------
 Cartesian Forces:  Max     0.003331907 RMS     0.001134438

 GradGradGradGradGradGradGradGradGradGradGradGradGradGradGradGradGradGrad
 Berny optimization.
 Using GEDIIS/GDIIS optimizer.
 Internal  Forces:  Max     0.003351337 RMS     0.000745747
 Search for a local minimum.
 Step number   2 out of a maximum of   92
 All quantities printed in internal units (Hartrees-Bohrs-Radians)
 Mixed Optimization -- En-DIIS/RFO-DIIS
 Update second derivatives using D2CorX and points    1    2
 DE= -2.26D-03 DEPred=-2.49D-03 R= 9.09D-01
 SS=  1.41D+00  RLast= 1.56D-01 DXNew= 5.0454D-01 4.6734D-01
 Trust test= 9.09D-01 RLast= 1.56D-01 DXMaxT set to 4.67D-01
 ITU=  1  0
 Use linear search instead of GDIIS.
     Eigenvalues ---    0.00369   0.00369   0.00369   0.00370   0.04847
     Eigenvalues ---    0.04847   0.04848   0.05515   0.05516   0.05517
     Eigenvalues ---    0.05517   0.05518   0.05519   0.05519   0.05519
     Eigenvalues ---    0.14442   0.14444   0.14982   0.16000   0.16000
     Eigenvalues ---    0.16000   0.16000   0.16000   0.16000   0.16000
     Eigenvalues ---    0.16000   0.16000   0.16000   0.16004   0.29421
     Eigenvalues ---    0.29424   0.29426   0.33443   0.34803   0.34808
     Eigenvalues ---    0.34809   0.34810   0.34812   0.34813   0.34815
     Eigenvalues ---    0.34817   0.34817   0.34818   0.34819   0.35510
 RFO step:  Lambda=-1.22154150D-04 EMin= 3.68580158D-03
 Quartic linear search produced a step of -0.05760.
 Iteration  1 RMS(Cart)=  0.00348291 RMS(Int)=  0.00001118
 Iteration  2 RMS(Cart)=  0.00000113 RMS(Int)=  0.00001112
 Iteration  3 RMS(Cart)=  0.00000000 RMS(Int)=  0.00001112
 Variable       Old X    -DE/DX   Delta X   Delta X   Delta X     New X
                                 (Linear)    (Quad)   (Total)
    R1        2.92264  -0.00333  -0.00181  -0.00809  -0.00990   2.91274
    R2        2.07195   0.00035  -0.00069   0.00192   0.00123   2.07319
    R3        2.07194   0.00034  -0.00070   0.00191   0.00122   2.07316
    R4        2.07194   0.00038  -0.00070   0.00202   0.00132   2.07326
    R5        2.92250  -0.00328  -0.00180  -0.00794  -0.00974   2.91276
    R6        2.92251  -0.00326  -0.00179  -0.00788  -0.00967   2.91284
    R7        2.92265  -0.00335  -0.00181  -0.00815  -0.00996   2.91269
    R8        2.07189   0.00035  -0.00070   0.00194   0.00123   2.07312
    R9        2.07199   0.00035  -0.00070   0.00196   0.00126   2.07325
   R10        2.07196   0.00033  -0.00070   0.00189   0.00119   2.07315
   R11        2.07189   0.00040  -0.00070   0.00207   0.00137   2.07327
   R12        2.07195   0.00036  -0.00071   0.00198   0.00127   2.07322
   R13        2.07187   0.00039  -0.00070   0.00204   0.00134   2.07322
   R14        2.07197   0.00034  -0.00071   0.00194   0.00123   2.07320
   R15        2.07190   0.00037  -0.00070   0.00200   0.00131   2.07320
   R16        2.07187   0.00037  -0.00069   0.00200   0.00131   2.07318
    A1        1.93817   0.00004  -0.00159   0.00240   0.00083   1.93900
    A2        1.93834   0.00012  -0.00160   0.00297   0.00139   1.93973
    A3        1.93824   0.00011  -0.00159   0.00289   0.00133   1.93956
    A4        1.88238  -0.00009   0.00163  -0.00289  -0.00124   1.88114
    A5        1.88222  -0.00009   0.00164  -0.00293  -0.00127   1.88095
    A6        1.88209  -0.00011   0.00164  -0.00291  -0.00125   1.88084
    A7        1.91083  -0.00001  -0.00001  -0.00002  -0.00003   1.91080
    A8        1.91066   0.00000   0.00000   0.00023   0.00022   1.91088
    A9        1.91056   0.00004   0.00000   0.00034   0.00035   1.91091
   A10        1.91046   0.00002   0.00001   0.00004   0.00005   1.91052
   A11        1.91060  -0.00004   0.00000  -0.00046  -0.00046   1.91014
   A12        1.91068  -0.00002   0.00000  -0.00013  -0.00013   1.91055
   A13        1.93794   0.00014  -0.00157   0.00308   0.00154   1.93948
   A14        1.93785   0.00009  -0.00157   0.00268   0.00113   1.93898
   A15        1.93826   0.00007  -0.00160   0.00266   0.00109   1.93935
   A16        1.88253  -0.00012   0.00162  -0.00299  -0.00135   1.88118
   A17        1.88248  -0.00011   0.00162  -0.00289  -0.00125   1.88123
   A18        1.88240  -0.00010   0.00162  -0.00301  -0.00137   1.88103
   A19        1.93777   0.00019  -0.00157   0.00330   0.00175   1.93952
   A20        1.93785   0.00015  -0.00157   0.00306   0.00151   1.93936
   A21        1.93800   0.00008  -0.00158   0.00272   0.00117   1.93916
   A22        1.88287  -0.00019   0.00161  -0.00354  -0.00191   1.88096
   A23        1.88253  -0.00014   0.00162  -0.00308  -0.00144   1.88109
   A24        1.88248  -0.00012   0.00162  -0.00297  -0.00133   1.88115
   A25        1.93805   0.00010  -0.00158   0.00288   0.00132   1.93938
   A26        1.93808   0.00009  -0.00158   0.00265   0.00109   1.93917
   A27        1.93807   0.00009  -0.00158   0.00276   0.00120   1.93927
   A28        1.88242  -0.00010   0.00163  -0.00297  -0.00132   1.88110
   A29        1.88234  -0.00008   0.00163  -0.00269  -0.00104   1.88130
   A30        1.88250  -0.00011   0.00162  -0.00310  -0.00146   1.88105
    D1        1.04760  -0.00002  -0.00002  -0.00116  -0.00118   1.04642
    D2       -3.14126   0.00000  -0.00002  -0.00099  -0.00100   3.14093
    D3       -1.04683   0.00000  -0.00002  -0.00080  -0.00082  -1.04764
    D4       -3.14099  -0.00003  -0.00003  -0.00123  -0.00126   3.14093
    D5       -1.04667   0.00000  -0.00003  -0.00105  -0.00108  -1.04775
    D6        1.04776   0.00000  -0.00003  -0.00086  -0.00090   1.04687
    D7       -1.04672  -0.00001  -0.00002  -0.00100  -0.00102  -1.04775
    D8        1.04761   0.00001  -0.00002  -0.00082  -0.00084   1.04676
    D9       -3.14115   0.00001  -0.00002  -0.00063  -0.00066   3.14138
   D10        1.04764   0.00000  -0.00003   0.00097   0.00094   1.04859
   D11       -3.14123   0.00001  -0.00002   0.00104   0.00102  -3.14021
   D12       -1.04687  -0.00001  -0.00003   0.00079   0.00077  -1.04611
   D13       -1.04680  -0.00001  -0.00002   0.00068   0.00066  -1.04615
   D14        1.04751   0.00000  -0.00001   0.00075   0.00073   1.04824
   D15       -3.14132  -0.00002  -0.00002   0.00050   0.00048  -3.14084
   D16       -3.14113   0.00002  -0.00003   0.00110   0.00107  -3.14007
   D17       -1.04682   0.00003  -0.00002   0.00117   0.00115  -1.04567
   D18        1.04753   0.00001  -0.00003   0.00092   0.00089   1.04843
   D19        1.04705   0.00002   0.00001   0.00072   0.00072   1.04777
   D20       -3.14152   0.00001   0.00000   0.00049   0.00049  -3.14103
   D21       -1.04724   0.00001   0.00000   0.00059   0.00059  -1.04665
   D22       -3.14158   0.00002  -0.00001   0.00086   0.00085  -3.14073
   D23       -1.04696   0.00001  -0.00001   0.00063   0.00061  -1.04635
   D24        1.04731   0.00001  -0.00001   0.00073   0.00072   1.04803
   D25       -1.04731  -0.00002   0.00000   0.00024   0.00024  -1.04707
   D26        1.04731  -0.00003   0.00000   0.00001   0.00001   1.04732
   D27        3.14159  -0.00002   0.00000   0.00011   0.00011  -3.14149
   D28        1.04632   0.00000   0.00005  -0.00086  -0.00081   1.04551
   D29        3.14071  -0.00001   0.00005  -0.00092  -0.00087   3.13984
   D30       -1.04797  -0.00002   0.00004  -0.00122  -0.00118  -1.04915
   D31       -1.04825   0.00001   0.00006  -0.00076  -0.00070  -1.04896
   D32        1.04614   0.00000   0.00006  -0.00082  -0.00076   1.04538
   D33        3.14064  -0.00001   0.00005  -0.00113  -0.00107   3.13957
   D34        3.14073   0.00001   0.00005  -0.00045  -0.00041   3.14033
   D35       -1.04806   0.00001   0.00005  -0.00051  -0.00046  -1.04852
   D36        1.04645  -0.00001   0.00004  -0.00082  -0.00078   1.04567
         Item               Value     Threshold  Converged?
 Maximum Force            0.003351     0.000450     NO 
 RMS     Force            0.000746     0.000300     NO 
 Maximum Displacement     0.008321     0.001800     NO 
 RMS     Displacement     0.003483     0.001200     NO 
 Predicted change in Energy=-6.960027D-05
 GradGradGradGradGradGradGradGradGradGradGradGradGradGradGradGradGradGrad

                          Input orientation:                          
 ---------------------------------------------------------------------
 Center     Atomic      Atomic             Coordinates (Angstroms)
 Number     Number       Type             X           Y           Z
 ---------------------------------------------------------------------
      1          6           0        0.050507    1.248414    0.903129
      2          6           0       -0.000059    0.000315    0.000097
      3          6           0       -0.044973   -1.266816    0.876553
      4          6           0       -1.260347    0.057190   -0.885552
      5          6           0        1.254786   -0.038554   -0.894078
      6          1           0        0.938949    1.234511    1.546610
      7          1           0        0.083918    2.167921    0.305677
      8          1           0       -0.832284    1.302904    1.552272
      9          1           0       -0.930290   -1.268247    1.524420
     10          1           0       -0.080131   -2.172997    0.259088
     11          1           0        0.841155   -1.334048    1.519833
     12          1           0       -1.255891    0.950290   -1.522762
     13          1           0       -1.323348   -0.820925   -1.540207
     14          1           0       -2.171347    0.085904   -0.274913
     15          1           0        2.169634   -0.078159   -0.289849
     16          1           0        1.246801   -0.919448   -1.547968
     17          1           0        1.312918    0.851846   -1.532349
 ---------------------------------------------------------------------
                    Distance matrix (angstroms):
                    1          2          3          4          5
     1  C    0.000000
     2  C    1.541354   0.000000
     3  C    2.517182   1.541367   0.000000
     4  C    2.517287   1.541407   2.516971   0.000000
     5  C    2.517246   1.541330   2.516572   2.516970   0.000000
     6  H    1.097082   2.190132   2.770147   3.484021   2.770813
     7  H    1.097069   2.190650   3.484241   2.771509   2.771079
     8  H    1.097121   2.190566   2.771266   2.770925   3.484250
     9  H    2.771560   2.190465   1.097050   2.770142   3.483652
    10  H    3.483950   2.190154   1.097116   2.770712   2.769051
    11  H    2.770299   2.190379   1.097065   3.483925   2.770625
    12  H    2.771372   2.190586   3.484049   1.097126   2.770659
    13  H    3.484184   2.190449   2.770161   1.097100   2.770625
    14  H    2.770533   2.190308   2.770775   1.097098   3.483855
    15  H    2.770143   2.190387   2.770899   3.483957   1.097091
    16  H    3.484053   2.190236   2.769052   2.770995   1.097092
    17  H    2.771733   2.190298   3.483591   2.769751   1.097079
                    6          7          8          9         10
     6  H    0.000000
     7  H    1.772639   0.000000
     8  H    1.772562   1.772479   0.000000
     9  H    3.123835   3.784337   2.573169   0.000000
    10  H    3.782505   4.344267   3.784170   1.772683   0.000000
    11  H    2.570559   3.783037   3.123294   1.772673   1.772592
    12  H    3.784066   2.573112   3.124038   3.783285   3.783163
    13  H    4.344105   3.784295   3.783546   3.121943   2.571216
    14  H    3.783013   3.123796   2.571534   2.571293   3.124256
    15  H    2.571044   3.122457   3.783154   3.783835   3.122679
    16  H    3.782952   3.784197   4.344299   3.781660   2.568577
    17  H    3.125104   2.573098   3.784208   4.344032   3.781470
                   11         12         13         14         15
    11  H    0.000000
    12  H    4.344328   0.000000
    13  H    3.783149   1.772585   0.000000
    14  H    3.783193   1.772668   1.772684   0.000000
    15  H    2.572365   3.783120   3.783652   4.344106   0.000000
    16  H    3.122154   3.124103   2.572049   3.783535   1.772640
    17  H    3.783717   2.570712   3.122199   3.782581   1.772760
                   16         17
    16  H    0.000000
    17  H    1.772597   0.000000
 Stoichiometry    C5H12
 Framework group  C1[X(C5H12)]
 Deg. of freedom    45
 Full point group                 C1      NOp   1
 Largest Abelian subgroup         C1      NOp   1
 Largest concise Abelian subgroup C1      NOp   1
                         Standard orientation:                         
 ---------------------------------------------------------------------
 Center     Atomic      Atomic             Coordinates (Angstroms)
 Number     Number       Type             X           Y           Z
 ---------------------------------------------------------------------
      1          6           0        1.528050   -0.176322   -0.102493
      2          6           0        0.000251    0.000063   -0.000053
      3          6           0       -0.515021   -0.707873    1.268464
      4          6           0       -0.340063    1.501532    0.075542
      5          6           0       -0.673009   -0.617348   -1.241513
      6          1           0        1.800231   -1.237695   -0.157234
      7          1           0        1.924166    0.317759   -0.998336
      8          1           0        2.035287    0.254893    0.769538
      9          1           0       -0.053563   -0.287802    2.170748
     10          1           0       -1.602365   -0.599878    1.366866
     11          1           0       -0.285918   -1.780452    1.243183
     12          1           0        0.014569    2.032773   -0.816481
     13          1           0       -1.423397    1.658017    0.149888
     14          1           0        0.126852    1.968825    0.951471
     15          1           0       -0.446961   -1.687842   -1.322465
     16          1           0       -1.763631   -0.507849   -1.194991
     17          1           0       -0.326522   -0.131057   -2.161866
 ---------------------------------------------------------------------
 Rotational constants (GHZ):      4.4064721      4.4058705      4.4049765
 Standard basis: 6-31G(d) (6D, 7F)
 There are    99 symmetry adapted basis functions of A   symmetry.
 Integral buffers will be    131072 words long.
 Raffenetti 2 integral format.
 Two-electron integral symmetry is turned on.
    99 basis functions,   188 primitive gaussians,    99 cartesian basis functions
    21 alpha electrons       21 beta electrons
       nuclear repulsion energy       197.5846123126 Hartrees.
 NAtoms=   17 NActive=   17 NUniq=   17 SFac= 1.00D+00 NAtFMM=   50 NAOKFM=F Big=F
 One-electron integrals computed using PRISM.
 NBasis=    99 RedAO= T  NBF=    99
 NBsUse=    99 1.00D-06 NBFU=    99
 Initial guess read from the read-write file.
 B after Tr=     0.000000    0.000000    0.000000
         Rot=    1.000000    0.000000    0.000000    0.000000 Ang=   0.00 deg.
 Initial guess orbital symmetries:
       Occupied  (A) (A) (A) (A) (A) (A) (A) (A) (A) (A) (A) (A)
                 (A) (A) (A) (A) (A) (A) (A) (A) (A)
       Virtual   (A) (A) (A) (A) (A) (A) (A) (A) (A) (A) (A) (A)
                 (A) (A) (A) (A) (A) (A) (A) (A) (A) (A) (A) (A)
                 (A) (A) (A) (A) (A) (A) (A) (A) (A) (A) (A) (A)
                 (A) (A) (A) (A) (A) (A) (A) (A) (A) (A) (A) (A)
                 (A) (A) (A) (A) (A) (A) (A) (A) (A) (A) (A) (A)
                 (A) (A) (A) (A) (A) (A) (A) (A) (A) (A) (A) (A)
                 (A) (A) (A) (A) (A) (A)
 Requested convergence on RMS density matrix=1.00D-08 within 128 cycles.
 Requested convergence on MAX density matrix=1.00D-06.
 Requested convergence on             energy=1.00D-06.
 No special actions if energy rises.
 Keep R1 ints in memory in canonical form, NReq=13361527.
 SCF Done:  E(RB3LYP) =  -197.772975583     A.U. after   12 cycles
             Convg  =    0.1104D-08             -V/T =  2.0105
 Calling FoFJK, ICntrl=      2127 FMM=F ISym2X=0 I1Cent= 0 IOpClX= 0 NMat=1 NMatS=1 NMatT=0.
 ***** Axes restored to original set *****
 -------------------------------------------------------------------
 Center     Atomic                   Forces (Hartrees/Bohr)
 Number     Number              X              Y              Z
 -------------------------------------------------------------------
      1        6          -0.000019361   -0.000615591   -0.000437872
      2        6          -0.000059297   -0.000097022   -0.000061019
      3        6           0.000019854    0.000655866   -0.000472327
      4        6           0.000605493    0.000004264    0.000397623
      5        6          -0.000604576    0.000061799    0.000426196
      6        1          -0.000021170    0.000109815    0.000083961
      7        1          -0.000005822    0.000029013    0.000026153
      8        1           0.000054421    0.000032372    0.000063048
      9        1           0.000014839   -0.000068784    0.000074311
     10        1          -0.000024214   -0.000049708    0.000088029
     11        1          -0.000020262   -0.000082609    0.000054607
     12        1          -0.000055660   -0.000022862    0.000015204
     13        1          -0.000070571    0.000024502    0.000026448
     14        1          -0.000046558    0.000003736   -0.000096777
     15        1           0.000043665    0.000001542   -0.000098566
     16        1           0.000082138    0.000045174   -0.000054403
     17        1           0.000107081   -0.000031507   -0.000034614
 -------------------------------------------------------------------
 Cartesian Forces:  Max     0.000655866 RMS     0.000218569

 GradGradGradGradGradGradGradGradGradGradGradGradGradGradGradGradGradGrad
 Berny optimization.
 Using GEDIIS/GDIIS optimizer.
 Internal  Forces:  Max     0.000550220 RMS     0.000124937
 Search for a local minimum.
 Step number   3 out of a maximum of   92
 All quantities printed in internal units (Hartrees-Bohrs-Radians)
 Mixed Optimization -- En-DIIS/RFO-DIIS
 Swaping is turned off.
 Update second derivatives using D2CorX and points    1    2    3
 DE= -8.12D-05 DEPred=-6.96D-05 R= 1.17D+00
 SS=  1.41D+00  RLast= 2.17D-02 DXNew= 7.8598D-01 6.5232D-02
 Trust test= 1.17D+00 RLast= 2.17D-02 DXMaxT set to 4.67D-01
 ITU=  1  1  0
     Eigenvalues ---    0.00368   0.00369   0.00369   0.00371   0.04844
     Eigenvalues ---    0.04848   0.04858   0.05502   0.05503   0.05503
     Eigenvalues ---    0.05504   0.05505   0.05505   0.05506   0.05508
     Eigenvalues ---    0.13651   0.14445   0.14459   0.16000   0.16000
     Eigenvalues ---    0.16000   0.16000   0.16000   0.16000   0.16000
     Eigenvalues ---    0.16000   0.16000   0.16001   0.16048   0.29343
     Eigenvalues ---    0.29422   0.29425   0.31056   0.34488   0.34805
     Eigenvalues ---    0.34809   0.34809   0.34812   0.34812   0.34814
     Eigenvalues ---    0.34816   0.34817   0.34818   0.34819   0.34857
 En-DIIS/RFO-DIIS IScMMF=        0 using points:     3    2
 RFO step:  Lambda=-2.84046139D-06.
 DidBck=F Rises=F RFO-DIIS coefs:    1.19064   -0.19064
 Iteration  1 RMS(Cart)=  0.00186385 RMS(Int)=  0.00000238
 Iteration  2 RMS(Cart)=  0.00000243 RMS(Int)=  0.00000027
 Iteration  3 RMS(Cart)=  0.00000000 RMS(Int)=  0.00000027
 Variable       Old X    -DE/DX   Delta X   Delta X   Delta X     New X
                                  (DIIS)     (GDIIS)  (Total)
    R1        2.91274  -0.00051  -0.00189  -0.00022  -0.00211   2.91063
    R2        2.07319   0.00003   0.00023  -0.00005   0.00019   2.07337
    R3        2.07316   0.00001   0.00023  -0.00010   0.00013   2.07329
    R4        2.07326   0.00000   0.00025  -0.00017   0.00008   2.07334
    R5        2.91276  -0.00052  -0.00186  -0.00027  -0.00212   2.91064
    R6        2.91284  -0.00055  -0.00184  -0.00041  -0.00225   2.91059
    R7        2.91269  -0.00044  -0.00190   0.00008  -0.00182   2.91087
    R8        2.07312   0.00003   0.00024  -0.00003   0.00021   2.07333
    R9        2.07325  -0.00001   0.00024  -0.00018   0.00006   2.07331
   R10        2.07315   0.00002   0.00023  -0.00007   0.00016   2.07331
   R11        2.07327  -0.00003   0.00026  -0.00026   0.00000   2.07327
   R12        2.07322  -0.00003   0.00024  -0.00025  -0.00001   2.07321
   R13        2.07322  -0.00002   0.00026  -0.00022   0.00003   2.07325
   R14        2.07320  -0.00002   0.00023  -0.00020   0.00004   2.07324
   R15        2.07320  -0.00001   0.00025  -0.00018   0.00007   2.07328
   R16        2.07318   0.00000   0.00025  -0.00016   0.00009   2.07327
    A1        1.93900   0.00017   0.00016   0.00135   0.00151   1.94051
    A2        1.93973   0.00001   0.00027   0.00002   0.00028   1.94002
    A3        1.93956   0.00006   0.00025   0.00026   0.00051   1.94007
    A4        1.88114  -0.00008  -0.00024  -0.00042  -0.00066   1.88047
    A5        1.88095  -0.00013  -0.00024  -0.00098  -0.00122   1.87973
    A6        1.88084  -0.00004  -0.00024  -0.00032  -0.00056   1.88028
    A7        1.91080  -0.00003  -0.00001  -0.00039  -0.00040   1.91040
    A8        1.91088   0.00000   0.00004  -0.00036  -0.00032   1.91057
    A9        1.91091  -0.00001   0.00007  -0.00025  -0.00018   1.91073
   A10        1.91052   0.00001   0.00001   0.00016   0.00017   1.91069
   A11        1.91014   0.00005  -0.00009   0.00081   0.00072   1.91086
   A12        1.91055  -0.00002  -0.00003   0.00003   0.00000   1.91055
   A13        1.93948   0.00008   0.00029   0.00040   0.00069   1.94018
   A14        1.93898   0.00011   0.00021   0.00086   0.00107   1.94005
   A15        1.93935   0.00010   0.00021   0.00069   0.00089   1.94024
   A16        1.88118  -0.00010  -0.00026  -0.00065  -0.00091   1.88027
   A17        1.88123  -0.00011  -0.00024  -0.00091  -0.00115   1.88008
   A18        1.88103  -0.00010  -0.00026  -0.00049  -0.00075   1.88027
   A19        1.93952   0.00004   0.00033   0.00015   0.00048   1.94000
   A20        1.93936   0.00005   0.00029   0.00024   0.00053   1.93988
   A21        1.93916   0.00013   0.00022   0.00086   0.00108   1.94025
   A22        1.88096  -0.00004  -0.00036   0.00000  -0.00037   1.88059
   A23        1.88109  -0.00009  -0.00027  -0.00059  -0.00087   1.88022
   A24        1.88115  -0.00010  -0.00025  -0.00073  -0.00098   1.88016
   A25        1.93938   0.00010   0.00025   0.00063   0.00088   1.94025
   A26        1.93917   0.00011   0.00021   0.00080   0.00101   1.94017
   A27        1.93927   0.00012   0.00023   0.00080   0.00103   1.94029
   A28        1.88110  -0.00010  -0.00025  -0.00065  -0.00090   1.88019
   A29        1.88130  -0.00012  -0.00020  -0.00095  -0.00115   1.88015
   A30        1.88105  -0.00012  -0.00028  -0.00075  -0.00103   1.88001
    D1        1.04642   0.00001  -0.00023   0.00308   0.00285   1.04927
    D2        3.14093   0.00000  -0.00019   0.00282   0.00262  -3.13964
    D3       -1.04764  -0.00002  -0.00016   0.00248   0.00232  -1.04532
    D4        3.14093   0.00003  -0.00024   0.00346   0.00322  -3.13904
    D5       -1.04775   0.00002  -0.00021   0.00320   0.00299  -1.04476
    D6        1.04687   0.00000  -0.00017   0.00286   0.00269   1.04955
    D7       -1.04775   0.00002  -0.00019   0.00324   0.00305  -1.04470
    D8        1.04676   0.00001  -0.00016   0.00298   0.00282   1.04958
    D9        3.14138  -0.00001  -0.00013   0.00264   0.00251  -3.13929
   D10        1.04859  -0.00002   0.00018  -0.00318  -0.00300   1.04558
   D11       -3.14021  -0.00002   0.00019  -0.00317  -0.00297   3.14000
   D12       -1.04611   0.00000   0.00015  -0.00276  -0.00261  -1.04872
   D13       -1.04615  -0.00001   0.00013  -0.00260  -0.00247  -1.04862
   D14        1.04824  -0.00001   0.00014  -0.00258  -0.00244   1.04580
   D15       -3.14084   0.00001   0.00009  -0.00217  -0.00208   3.14026
   D16       -3.14007  -0.00002   0.00020  -0.00323  -0.00303   3.14009
   D17       -1.04567  -0.00002   0.00022  -0.00321  -0.00300  -1.04867
   D18        1.04843   0.00000   0.00017  -0.00280  -0.00263   1.04579
   D19        1.04777   0.00001   0.00014   0.00119   0.00133   1.04910
   D20       -3.14103   0.00002   0.00009   0.00145   0.00154  -3.13949
   D21       -1.04665   0.00001   0.00011   0.00126   0.00138  -1.04528
   D22       -3.14073  -0.00003   0.00016   0.00059   0.00075  -3.13998
   D23       -1.04635  -0.00002   0.00012   0.00084   0.00096  -1.04539
   D24        1.04803  -0.00003   0.00014   0.00066   0.00080   1.04883
   D25       -1.04707   0.00002   0.00005   0.00170   0.00174  -1.04532
   D26        1.04732   0.00003   0.00000   0.00195   0.00195   1.04927
   D27       -3.14149   0.00003   0.00002   0.00177   0.00179  -3.13970
   D28        1.04551   0.00000  -0.00015   0.00251   0.00235   1.04786
   D29        3.13984   0.00001  -0.00017   0.00264   0.00247  -3.14087
   D30       -1.04915   0.00001  -0.00023   0.00276   0.00253  -1.04661
   D31       -1.04896   0.00002  -0.00013   0.00264   0.00251  -1.04645
   D32        1.04538   0.00002  -0.00014   0.00277   0.00263   1.04801
   D33        3.13957   0.00003  -0.00020   0.00289   0.00269  -3.14093
   D34        3.14033  -0.00001  -0.00008   0.00193   0.00186  -3.14100
   D35       -1.04852   0.00000  -0.00009   0.00206   0.00198  -1.04655
   D36        1.04567   0.00000  -0.00015   0.00218   0.00203   1.04771
         Item               Value     Threshold  Converged?
 Maximum Force            0.000550     0.000450     NO 
 RMS     Force            0.000125     0.000300     YES
 Maximum Displacement     0.006499     0.001800     NO 
 RMS     Displacement     0.001864     0.001200     NO 
 Predicted change in Energy=-3.592471D-06
 GradGradGradGradGradGradGradGradGradGradGradGradGradGradGradGradGradGrad

                          Input orientation:                          
 ---------------------------------------------------------------------
 Center     Atomic      Atomic             Coordinates (Angstroms)
 Number     Number       Type             X           Y           Z
 ---------------------------------------------------------------------
      1          6           0        0.050075    1.247152    0.902338
      2          6           0        0.000058   -0.000047   -0.000062
      3          6           0       -0.045214   -1.265904    0.876241
      4          6           0       -1.259099    0.056999   -0.885237
      5          6           0        1.254301   -0.038206   -0.893455
      6          1           0        0.939314    1.236151    1.544944
      7          1           0        0.080479    2.167008    0.305137
      8          1           0       -0.831387    1.300451    1.553455
      9          1           0       -0.929131   -1.266327    1.526202
     10          1           0       -0.083092   -2.172906    0.260085
     11          1           0        0.841603   -1.335054    1.518511
     12          1           0       -1.254296    0.949364   -1.523473
     13          1           0       -1.323337   -0.821565   -1.539163
     14          1           0       -2.170824    0.087098   -0.275720
     15          1           0        2.169514   -0.079857   -0.289880
     16          1           0        1.246598   -0.917425   -1.549664
     17          1           0        1.314439    0.853168   -1.530259
 ---------------------------------------------------------------------
                    Distance matrix (angstroms):
                    1          2          3          4          5
     1  C    0.000000
     2  C    1.540239   0.000000
     3  C    2.514998   1.540244   0.000000
     4  C    2.515120   1.540216   2.515232   0.000000
     5  C    2.515388   1.540368   2.515513   2.515216   0.000000
     6  H    1.097182   2.190304   2.770693   3.482700   2.769295
     7  H    1.097137   2.189919   3.482363   2.768321   2.770822
     8  H    1.097164   2.189980   2.768188   2.770619   3.482738
     9  H    2.768687   2.190054   1.097160   2.770399   3.482872
    10  H    3.482387   2.189955   1.097148   2.768976   2.770599
    11  H    2.770194   2.190092   1.097150   3.482638   2.769425
    12  H    2.770311   2.189878   3.482516   1.097125   2.768624
    13  H    3.482353   2.189771   2.768612   1.097096   2.770344
    14  H    2.768744   2.190048   2.770532   1.097115   3.482640
    15  H    2.770263   2.190184   2.769759   3.482609   1.097111
    16  H    3.482725   2.190139   2.770420   2.769383   1.097130
    17  H    2.769724   2.190223   3.482868   2.770024   1.097125
                    6          7          8          9         10
     6  H    0.000000
     7  H    1.772347   0.000000
     8  H    1.771888   1.772207   0.000000
     9  H    3.123113   3.781283   2.568783   0.000000
    10  H    3.783893   4.343229   3.781132   1.772208   0.000000
    11  H    2.573197   3.783652   3.121859   1.772085   1.772200
    12  H    3.782771   2.570622   3.125635   3.783588   3.781715
    13  H    4.343444   3.782026   3.782757   3.122447   2.569362
    14  H    3.782605   3.119582   2.571419   2.573030   3.123032
    15  H    2.571352   3.125142   3.782663   3.782521   3.123707
    16  H    3.782712   3.783365   4.343540   3.783713   2.572838
    17  H    3.121582   2.572453   3.783374   4.343711   3.783589
                   11         12         13         14         15
    11  H    0.000000
    12  H    4.343389   0.000000
    13  H    3.781535   1.772344   0.000000
    14  H    3.783715   1.772121   1.772059   0.000000
    15  H    2.570825   3.782000   3.782968   4.343571   0.000000
    16  H    3.122840   3.120907   2.571744   3.782959   1.772103
    17  H    3.782445   2.570545   3.124527   3.782564   1.772070
                   16         17
    16  H    0.000000
    17  H    1.771998   0.000000
 Stoichiometry    C5H12
 Framework group  C1[X(C5H12)]
 Deg. of freedom    45
 Full point group                 C1      NOp   1
 Largest Abelian subgroup         C1      NOp   1
 Largest concise Abelian subgroup C1      NOp   1
                         Standard orientation:                         
 ---------------------------------------------------------------------
 Center     Atomic      Atomic             Coordinates (Angstroms)
 Number     Number       Type             X           Y           Z
 ---------------------------------------------------------------------
      1          6           0       -0.690212    0.098599    1.373328
      2          6           0        0.000052   -0.000040   -0.000041
      3          6           0       -0.906088   -0.774785   -0.975249
      4          6           0        0.253806    1.416130   -0.549891
[...]
   D35       -1.04561  -0.00002   0.00000  -0.00134  -0.00134  -1.04695
   D36        1.04875  -0.00002   0.00000  -0.00140  -0.00140   1.04735
         Item               Value     Threshold  Converged?
 Maximum Force            0.000092     0.000450     YES
 RMS     Force            0.000024     0.000300     YES
 Maximum Displacement     0.001958     0.001800     NO 
 RMS     Displacement     0.000677     0.001200     YES
 Predicted change in Energy=-2.288254D-07
 GradGradGradGradGradGradGradGradGradGradGradGradGradGradGradGradGradGrad


 Test job not archived.
 1\1\GINC-TERMINUS\Freq\RB3LYP\6-31G(d)\C5H12\FRODOX\22-Jan-2018\0\\#N 
 Geom=AllCheck Guess=TCheck SCRF=Check Test GenChk RB3LYP/6-31G(d) Freq
 \\NeoConformation/neopentane.xyz\\0,1\C,0.0502140808,1.2473986148,0.90
 21542267\C,0.0001242775,-0.0000133436,0.0000066207\C,-0.0450492671,-1.
 2659382825,0.87631356\C,-1.259208406,0.056836144,-0.8850314812\C,1.254
 169975,-0.0382977067,-0.8934266609\H,0.9389896098,1.2359644332,1.54528
 22034\H,0.0818889851,2.1671598743,0.3048398437\H,-0.8317406817,1.30165
 17215,1.5525380889\H,-0.92927632,-1.2666074733,1.5257939831\H,-0.08234
 4543,-2.1730307908,0.2602774713\H,0.841474769,-1.3348574914,1.51901635
 39\H,-1.2553129074,0.9497266734,-1.5225090954\H,-1.3230658285,-0.82107
 62418,-1.5399376971\H,-2.1710711631,0.0855647297,-0.2755761107\H,2.169
 3742139,-0.0807688847,-0.2899095212\H,1.246070667,-0.9170996835,-1.550
 1887257\H,1.3147625387,0.8534877073,-1.5296430595\\Version=EM64L-G09Re
 vB.01\State=1-A\HF=-197.7729885\RMSD=3.181e-10\RMSF=2.766e-05\ZeroPoin
 t=0.1603986\Thermal=0.1672796\Dipole=-0.0000274,-0.0000134,-0.0000214\
 DipoleDeriv=0.083594,-0.0014672,-0.0011438,-0.0016602,0.0448389,-0.028
 1835,-0.0013129,-0.0280918,0.0633239,0.1352904,-0.0001205,-0.0000172,0
 .0000738,0.1351013,0.0000849,0.0000586,-0.0000474,0.1352464,0.0836478,
 -0.0015275,0.0010251,-0.0014613,0.0436265,0.0277357,0.0010963,0.027722
 5,0.0644685,0.044087,0.0018722,-0.0277144,0.001642,0.0836357,0.0012844
 ,-0.0279659,0.0013273,0.0641114,0.0443655,0.0011454,0.0280014,0.001217
 6,0.0835097,-0.0007528,0.0279326,-0.0010108,0.0637669,-0.096191,-0.016
 006,-0.1241638,0.0170446,0.0341321,-0.0041745,-0.1012676,-0.028434,-0.
 0357397,0.057961,-0.0066146,0.0021534,-0.00688,-0.1320328,0.0664566,0.
 003932,0.1134207,-0.0235213,-0.0937373,0.0252623,0.1239807,-0.0074038,
 0.0334891,-0.013341,0.09942,-0.0359615,-0.037562,-0.0945959,-0.0181724
 ,0.124174,0.0151669,0.0334765,0.0053577,0.1020663,0.0297658,-0.0365304
 ,0.0579223,-0.0076087,-0.0029848,-0.0073734,-0.1283034,-0.0686392,-0.0
 048003,-0.1153446,-0.0272235,-0.0953858,0.0282895,-0.1229786,-0.005202
 9,0.0324533,0.0149412,-0.099007,0.0373118,-0.0349186,0.0337563,-0.0156
 822,-0.0051216,0.0177429,-0.0976314,0.1235513,-0.0290572,0.1011117,-0.
 0337651,0.0328406,0.0060908,-0.014415,-0.0267594,-0.0923421,-0.1239497
 ,-0.0371694,-0.099719,-0.0383233,-0.1298468,0.0065271,0.0679395,0.0059
 762,0.0580246,-0.0017897,0.1147342,-0.0035557,-0.0259247,-0.1307345,0.
 0081277,-0.0671504,0.0086485,0.0578345,0.0035499,-0.1139264,0.0053203,
 -0.0246869,0.0338923,-0.0165108,0.0042805,0.0162485,-0.0927349,-0.1249
 719,0.0290366,-0.1022777,-0.0389429,0.0331342,0.0063948,0.014135,-0.02
 702,-0.0970775,0.1228407,0.0362301,0.0984625,-0.0337785\Polar=54.07817
 29,0.0007192,54.0774918,-0.0004448,0.0006322,54.0787233\PG=C01 [X(C5H1
 2)]\NImag=0\\0.58039820,-0.00320121,0.50357733,-0.00219877,-0.05565508
 ,0.54025987,-0.07743767,-0.00233870,-0.00175817,0.49301030,-0.00252157
 ,-0.14073404,-0.04565944,0.00016979,0.49294327,-0.00188372,-0.04595320
 ,-0.11057754,-0.00007351,0.00013033,0.49276937,0.00035913,-0.00136848,
 0.00052160,-0.07756909,-0.00243746,0.00165886,0.58079294,-0.00130262,-
 0.03428916,0.01320435,-0.00241438,-0.14280942,0.04508772,-0.00270271,0
 .50166168,-0.00051217,-0.01415619,0.01145262,0.00163648,0.04514608,-0.
 10885533,0.00202204,0.05490277,0.54296285,-0.00386187,-0.00442037,-0.0
 0621007,-0.14201910,0.00289373,-0.04538309,-0.00178490,0.00454702,-0.0
 0472236,0.50239902,-0.02372144,-0.00141778,-0.01862769,0.00280267,-0.0
 7765631,0.00206517,0.02411692,-0.00408139,0.01939462,0.00362878,0.5807
 4485,-0.01969419,-0.00450098,-0.01710797,-0.04546338,0.00192787,-0.109
 33972,-0.01874353,0.00629321,-0.01664875,-0.05482799,0.00259486,0.5421
 0833,-0.00159938,0.00438755,0.00470784,-0.14156263,0.00191845,0.045538
 12,-0.00375715,-0.00452222,0.00607338,-0.03422133,0.00125951,0.0138778
 1,0.50300277,0.02363592,-0.00357687,-0.01930757,0.00197520,-0.07741122
 ,-0.00115172,-0.02397474,-0.00192139,0.01913855,0.00143951,0.00038244,
 -0.00062025,0.00241292,0.58042079,0.01913404,-0.00602941,-0.01732661,0
 .04574426,-0.00131895,-0.10979940,0.01899719,0.00487110,-0.01677386,-0
 .01351603,0.00040600,0.01145722,0.05544510,-0.00192195,0.54108918,-0.2
 2160877,0.00475132,-0.12252856,-0.00199578,0.00010401,0.00003860,-0.00
 011011,0.00048879,0.00001289,0.00102679,-0.00113444,-0.00001861,0.0006
 3807,0.00026071,0.00072477,0.23929745,0.00536980,-0.04926658,0.0042839
 1,-0.02285653,0.00051624,-0.01526720,-0.00109413,0.00154894,-0.0006856
 2,0.00068508,-0.00475548,-0.00278074,-0.00093564,0.00085602,0.00073427
 ,-0.00552275,0.05155848,-0.12200710,0.00393113,-0.13650114,-0.01585823
 ,0.00158073,-0.01242808,0.00024697,0.00117275,0.00040197,0.00124412,-0
 .00411968,-0.00196407,-0.00143562,0.00088757,0.00043297,0.13579880,-0.
 00174133,0.14673922,-0.05013087,-0.00617391,0.00404800,-0.00169656,-0.
 00074794,0.00067895,-0.00002810,-0.00015007,-0.00021165,0.00013233,-0.
 00074558,0.00068947,0.00011497,0.00077392,-0.00055744,0.00175783,0.023
 67856,-0.01490611,0.04863756,-0.00611464,-0.22753508,0.11966631,-0.000
 64359,-0.02232754,0.01653113,-0.00015779,-0.00366571,-0.00545642,0.000
 73699,0.00061107,0.00157267,-0.00066999,0.00062270,0.00162037,0.000516
 42,0.00024929,-0.00017809,0.00688099,0.24933686,0.00409294,0.12057225,
 -0.13001624,-0.00050761,-0.01622205,0.01093975,-0.00011588,-0.00287220
 ,-0.00199813,0.00037356,-0.00038572,0.00111805,-0.00040470,-0.00035078
 ,0.00109599,0.00181997,0.01515563,-0.01072810,-0.00440748,-0.13067260,
 0.13940272,-0.21924235,0.00794290,0.12316793,-0.00005504,-0.00009939,-
 0.00131564,-0.00005393,-0.00033795,-0.00005703,0.00068629,-0.00022192,
 -0.00060008,0.00101982,0.00067005,-0.00021166,-0.02082357,0.00047090,0
 .01633296,0.00010047,-0.00049041,-0.00076759,0.23653585,0.00741894,-0.
 04949772,-0.00490577,0.02260760,-0.00129109,-0.01532402,0.00122303,0.0
 0144792,-0.00071603,0.00092235,0.00077574,0.00073586,-0.00113797,-0.00
 475567,-0.00277255,0.00105908,-0.00099595,-0.00048453,-0.02352541,0.00
 205196,0.01544241,-0.00830181,0.05194609,0.12269704,-0.00514180,-0.138
 22658,0.01578426,0.00034771,-0.01248994,-0.00014248,0.00119899,0.00041
 009,0.00139211,0.00069542,0.00035859,-0.00157066,-0.00401283,-0.001952
 13,-0.01605162,0.00072643,0.01313327,0.01480180,-0.00123497,-0.0107976
 1,-0.13636169,0.00839030,0.14861515,-0.00010292,0.00047567,-0.00000028
 ,-0.00185196,0.00009918,-0.00008007,-0.21985133,0.00242733,0.12313506,
 0.00065376,0.00025273,-0.00069044,0.00101828,-0.00111190,-0.00002089,-
 0.00007468,-0.00002762,0.00011279,0.00023463,-0.00011814,-0.00025566,0
 .00042505,-0.00055881,-0.00027982,0.23725490,-0.00108405,0.00155482,0.
 00076367,-0.02313531,0.00024088,0.01561439,0.00297504,-0.04924643,-0.0
 0262167,-0.00093542,0.00088503,-0.00068776,0.00071962,-0.00490031,0.00
 271620,0.00000921,-0.00013857,-0.00005274,0.00027879,0.00034831,-0.000
 11903,0.00051563,-0.00032558,-0.00039720,-0.00289109,0.05158055,-0.000
 25557,-0.00118327,0.00037787,0.01534305,-0.00143717,-0.01198932,0.1227
 1354,-0.00216872,-0.13847568,0.00139715,-0.00083844,0.00033006,-0.0012
 4576,0.00406635,-0.00181030,-0.00010486,0.00003936,0.00004640,-0.00028
 591,-0.00006079,-0.00001806,-0.00021800,0.00048681,0.00067541,-0.13654
 745,-0.00012150,0.14847275,-0.00002365,-0.00013228,0.00020229,-0.00178
 490,-0.00067390,-0.00058430,-0.05014350,-0.00712146,-0.00506354,0.0001
 4938,0.00078396,0.00059370,0.00014426,-0.00068602,-0.00070236,0.000237
 60,0.00027436,0.00028836,0.00064860,-0.00008815,-0.00003972,0.00022474
 ,-0.00026227,-0.00028509,0.00191926,0.02322322,0.01532933,0.04864104,-
 0.00012367,-0.00384076,0.00541580,-0.00077914,-0.02241399,-0.01697027,
 -0.00713141,-0.22248133,-0.12170547,-0.00072756,0.00061262,-0.00165008
 ,0.00072133,0.00063825,-0.00156700,-0.00012443,0.00034184,0.00006786,-
 0.00009671,-0.00178058,-0.00105108,0.00013154,0.00035434,0.00008908,0.
 00053281,0.00055139,0.00036197,0.00794828,0.24389243,0.00010101,0.0028
 3549,-0.00182974,0.00065992,0.01563329,0.01078395,-0.00505176,-0.12248
 436,-0.13486424,0.00040829,0.00035341,0.00109936,-0.00036969,0.0003393
 6,0.00110179,0.00024993,0.00012617,-0.00001772,0.00003787,0.00099690,0
 .00090564,-0.00024330,0.00014773,-0.00001309,-0.00189566,-0.01508962,-
 0.01103075,0.00536174,0.13282056,0.14461476,-0.00006410,-0.00036696,0.
 00004856,0.00002209,-0.00012785,0.00128827,-0.22111405,0.01073268,-0.1
 2230170,0.00103023,0.00068965,0.00021080,0.00067026,-0.00030148,0.0006
 8232,0.00044605,0.00057890,0.00027621,0.00022646,0.00012798,0.00024341
 ,-0.00006954,0.00000506,-0.00011027,-0.02080834,0.00082883,-0.01607625
 ,-0.00004731,-0.00050243,0.00064494,0.23836413,0.00124000,0.00148217,0
 .00073217,0.02329341,-0.00140433,0.01538582,0.01015419,-0.04985749,0.0
 0684020,-0.00115855,-0.00489475,0.00271447,0.00096415,0.00080158,-0.00
 072771,-0.00059645,-0.00032074,-0.00038032,-0.00027010,0.00035693,-0.0
 0013590,-0.00002691,-0.00011597,-0.00004980,0.00073831,-0.00095852,0.0
 0021444,-0.02329705,0.00238487,-0.01502469,-0.01150500,0.05216691,0.00
 017283,-0.00119335,0.00037943,-0.01544611,-0.00032061,-0.01181027,-0.1
 2188922,0.00722487,-0.13666996,0.00153325,0.00395329,-0.00182717,-0.00
 145434,-0.00071151,0.00035313,0.00026401,0.00051839,0.00068993,0.00027
 735,-0.00008188,-0.00002344,0.00010697,0.00004306,0.00004461,0.0163099
 1,-0.00104071,0.01312180,-0.01527222,0.00160026,-0.01098040,0.13535328
 ,-0.01064174,0.14645608,0.00086062,0.00094699,0.00066960,0.00043777,0.
 02319801,-0.01498405,-0.00484670,-0.00067814,-0.00275133,-0.04928613,-
 0.00398829,0.00318588,0.00150513,0.00109610,-0.00072453,-0.00000656,0.
 00008856,0.00036213,0.00006744,-0.00063538,-0.00002563,-0.00003380,-0.
 00018474,0.00000054,0.00020292,-0.00009063,-0.00029296,-0.00010317,-0.
 00016475,0.00023338,0.00022048,0.00147684,-0.00134678,0.05165203,-0.00
 029594,0.00063221,-0.00073432,-0.00009534,-0.00192740,0.00008374,0.001
 16837,0.00103454,0.00002324,-0.00336785,-0.22319001,0.12194965,-0.0004
 8713,-0.00009134,-0.00001315,0.00015790,0.00020789,-0.00001277,-0.0000
 1457,0.00054055,0.00017105,0.00004164,-0.00001832,-0.00004759,-0.00015
 981,-0.00000235,-0.00008333,-0.00017674,0.00044714,-0.00012902,0.00001
 378,0.00009560,0.00040805,0.00395843,0.24079176,0.00086503,0.00141494,
 0.00039374,0.00163800,0.01579838,-0.01184239,-0.00407228,-0.00121265,-
 0.00188162,0.00273927,0.12152557,-0.13518194,0.00116759,-0.00026603,0.
 00040349,0.00008162,-0.00029422,0.00035867,-0.00046763,-0.00105563,-0.
 00011996,-0.00004551,0.00002167,-0.00010472,-0.00001209,-0.00036563,0.
 00035955,0.00001322,0.00020529,0.00021710,-0.00029817,0.00138845,-0.00
 054250,-0.00067256,-0.13532163,0.14499637,-0.00484507,0.00117828,-0.00
 272629,-0.00136006,-0.02284874,-0.01554270,0.00081547,-0.00097493,0.00
 072290,-0.04977711,-0.00903001,-0.00615874,0.00142394,-0.00116820,-0.0
 0066790,0.00011001,-0.00144788,-0.00140377,-0.00007299,0.00019894,0.00
 024835,0.00022122,0.00007852,-0.00028492,-0.00002531,0.00018608,0.0000
 0472,0.00023052,0.00068483,0.00005484,-0.00002312,-0.00007796,0.000361
 88,-0.00092519,-0.00088848,-0.00031577,0.05215051,-0.00063806,0.001003
 89,0.00024594,0.00010745,-0.00002671,0.00124580,0.00024425,0.00070343,
 0.00065759,-0.00963629,-0.21773903,-0.12342152,0.00028213,-0.00004819,
 0.00005713,-0.00000614,0.00024243,-0.00028868,0.00021812,0.00042049,0.
 00011658,0.00014209,-0.00002862,0.00009803,-0.00003210,-0.00004008,0.0
 0004619,0.00003712,0.00042588,-0.00013209,-0.00014337,0.00022124,-0.00
 001939,-0.00069917,-0.02080249,-0.01653433,0.01020518,0.23493351,-0.00
 398762,0.00157785,-0.00184973,0.00036593,-0.01549447,-0.01230928,0.000
 73326,-0.00148779,0.00036147,-0.00671075,-0.12310874,-0.13996030,0.001
 15250,0.00017535,0.00042460,-0.00040188,-0.00134748,-0.00057842,0.0000
 0225,-0.00020184,0.00021439,0.00001836,0.00035612,0.00036770,-0.000054
 96,-0.00000073,-0.00008484,-0.00026546,0.00107010,0.00005301,0.0001035
 1,0.00028387,0.00036532,0.00092306,0.01584939,0.01312779,0.00982196,0.
 13679041,0.15036144,0.00065151,0.00065479,0.00157104,-0.02261735,0.000
 47562,0.01657420,0.00063907,-0.00073963,0.00156105,-0.22442806,0.00538
 554,0.12085365,-0.00378197,0.00020203,-0.00543503,0.00044886,0.0001656
 8,-0.00019870,-0.00003385,-0.00002981,-0.00008790,0.00044157,-0.000510
 43,-0.00080235,0.00044532,0.00061030,-0.00097159,-0.00003820,0.0000415
 6,-0.00009564,0.00041666,-0.00020106,-0.00020639,0.00043018,-0.0005376
 1,-0.00028661,0.00228215,0.00049824,-0.00141206,0.24622782,-0.00072952
 ,0.00011619,0.00053409,0.00092655,-0.00186520,-0.00086368,0.00072859,0
 .00013798,-0.00068911,0.00531893,-0.05011800,-0.00389812,0.00017005,-0
 .00002581,0.00022178,0.00017655,-0.00010539,0.00001123,-0.00011978,-0.
 00002460,0.00007463,-0.00008275,0.00017034,-0.00027788,0.00004742,0.00
 014246,0.00038670,0.00013631,-0.00004989,-0.00006628,-0.00021737,-0.00
 007197,-0.00000031,-0.02356386,0.00170732,0.01533049,0.02319798,0.0001
 9478,-0.01504533,-0.00608825,0.04868384,-0.00031498,0.00038873,0.00107
 895,-0.01589695,0.00034784,0.01064073,-0.00036761,-0.00037999,0.001071
 17,0.12176494,-0.00390391,-0.13332560,-0.00284743,0.00012817,-0.001885
 82,0.00013594,0.00023244,0.00022049,0.00007077,-0.00008729,-0.00009534
 ,0.00012239,0.00000622,-0.00000808,0.00008895,-0.00002045,-0.00000146,
 0.00007653,0.00008637,-0.00009502,0.00011218,-0.00024730,0.00021385,0.
 01486143,-0.00173310,-0.01078798,0.01542337,0.00082016,-0.01109304,-0.
 13194783,0.00431043,0.14319657,0.00065932,-0.00067733,-0.00153459,-0.0
 2259856,0.00109448,-0.01646714,0.00059284,0.00068853,-0.00160792,-0.00
 372415,0.00008765,0.00544281,-0.22565174,0.00825310,-0.12046636,0.0004
 7476,0.00048613,0.00085445,-0.00002607,0.00002542,0.00010338,0.0004186
 6,-0.00020212,0.00020027,0.00044843,0.00016015,0.00020248,-0.00003987,
 -0.00003510,0.00009146,0.00053897,-0.00062070,0.00097255,0.00034300,0.
 00011952,0.00006368,0.00035231,-0.00013174,0.00008275,-0.00178057,0.00
 010263,-0.00101516,0.24746456,0.00073037,0.00008855,0.00066513,0.00051
 525,-0.00185131,0.00034083,-0.00079723,0.00012874,-0.00057958,0.000106
 94,-0.00002121,-0.00018595,0.00833095,-0.05014535,0.00567281,0.0000519
 2,0.00011019,-0.00041346,0.00013035,-0.00003602,0.00004700,-0.00021753
 ,-0.00007560,-0.00000481,0.00017853,-0.00010039,-0.00001767,-0.0001132
 7,-0.00002217,-0.00006969,0.00000147,0.00015697,0.00034593,-0.00027564
 ,0.00024111,-0.00028192,0.00026573,0.00022007,0.00028192,0.00008043,0.
 00064873,0.00003558,-0.00931900,0.04876358,0.00038231,0.00034626,0.001
 07854,0.01592281,-0.00089838,0.01064040,0.00034734,-0.00040589,0.00109
 710,0.00286202,-0.00008579,-0.00193961,-0.12126121,0.00562476,-0.13165
 114,-0.00008549,-0.00005289,-0.00008920,-0.00008183,-0.00007880,-0.000
 09384,-0.00011996,0.00024132,0.00021825,-0.00013199,-0.00023980,0.0002
 1418,-0.00007300,0.00009113,-0.00009456,-0.00019824,0.00003163,-0.0000
 5798,0.00011877,-0.00024997,-0.00002541,0.00014369,0.00024447,-0.00001
 375,0.00103321,-0.00004073,0.00090630,0.13154471,-0.00599675,0.1414882
 3,-0.00480801,-0.00072976,0.00275366,0.00043989,0.02268211,0.01559196,
 0.00086435,0.00094465,-0.00069615,0.00152127,0.00103695,0.00065732,-0.
 04932038,-0.00483958,-0.00403370,0.00020512,-0.00009586,0.00028948,-0.
 00010239,-0.00016205,-0.00023534,0.00022986,0.00144146,0.00137230,-0.0
 0000767,0.00009763,-0.00035977,0.00005896,-0.00058081,0.00005333,-0.00
 003360,-0.00018423,-0.00002295,-0.00012769,0.00000814,-0.00004961,-0.0
 0043540,-0.00046774,-0.00032398,0.00034333,-0.00027285,-0.00012620,0.0
 0033058,-0.02330832,-0.01541663,0.05179863,0.00108288,0.00101301,0.000
 02586,-0.00014915,-0.00166700,0.00006780,-0.00022742,0.00064465,0.0006
 8710,-0.00040011,-0.00009634,0.00002235,-0.00422817,-0.21776712,-0.123
 68506,-0.00016001,-0.00001039,0.00007973,-0.00017725,0.00044698,0.0001
 3611,0.00000483,0.00013239,-0.00039427,0.00016019,0.00020088,0.0000055
 4,-0.00007004,0.00052396,-0.00014398,0.00004489,-0.00002326,0.00002453
 ,-0.00000838,-0.00006898,-0.00010472,0.00045709,0.00039890,0.00018884,
 0.00012344,0.00022940,0.00025489,-0.00050478,0.00204294,0.00203962,0.0
 0500497,0.23482877,0.00411206,0.00127906,-0.00189641,-0.00162195,-0.01
 557197,-0.01247560,-0.00084702,-0.00142130,0.00033942,-0.00116227,0.00
 024509,0.00042139,-0.00337450,-0.12328890,-0.14044195,0.00000860,0.000
 35883,0.00036752,-0.00001344,-0.00020147,0.00021575,0.00029479,-0.0013
 8239,-0.00058925,-0.00007723,0.00029002,0.00036700,0.00041565,0.000930
 88,-0.00006656,0.00003678,-0.00001844,-0.00007181,0.00006117,0.0001008
 6,0.00004454,0.00027123,0.00017909,0.00056967,-0.00006313,0.00028946,-
 0.00001207,0.00016036,-0.01498234,-0.01100105,0.00140867,0.13737835,0.
 15109926,0.00079587,-0.00092848,-0.00073379,-0.00136136,-0.02317852,0.
 01494526,-0.00480494,0.00111513,0.00276006,0.00150357,-0.00120269,0.00
 068551,-0.04964293,-0.00863753,0.00560822,-0.00002304,0.00018244,0.000
 00325,0.00017054,0.00062322,-0.00003409,-0.00002531,-0.00007251,-0.000
 35943,0.00011964,-0.00146798,0.00136785,-0.00007378,0.00020566,-0.0002
 4066,0.00022474,0.00007110,0.00028597,-0.00039034,0.00055569,-0.000348
 19,-0.00012189,0.00002005,-0.00004688,0.00035353,0.00026939,-0.0001403
 6,0.00219755,0.02363905,-0.01498651,-0.00095683,-0.00095299,0.00039023
 ,0.05203496,0.00025481,0.00068982,-0.00064734,0.00001422,-0.00031485,-
 0.00102264,-0.00071902,0.00104443,-0.00018008,0.00036683,-0.00004145,-
 0.00006553,-0.00918552,-0.22307852,0.12173613,-0.00003168,-0.00003823,
 -0.00005939,0.00006060,0.00038440,0.00009371,-0.00014090,0.00022572,0.
 00001521,-0.00001270,0.00020791,0.00030353,0.00021794,0.00041600,-0.00
 011318,0.00014124,-0.00001923,-0.00010886,-0.00047597,0.00040276,-0.00
 024803,-0.00001644,-0.00007951,0.00011254,-0.00013083,0.00022980,-0.00
 023880,0.00047316,-0.00014884,-0.00057020,-0.00057472,-0.02082879,0.01
 581515,0.00975899,0.24094858,-0.00070314,0.00146758,0.00031094,-0.0004
 6881,0.01601083,-0.01185733,0.00398898,-0.00152286,-0.00192912,-0.0011
 8217,-0.00016345,0.00040213,0.00600159,0.12127144,-0.13471718,0.000055
 89,-0.00000594,-0.00008371,0.00032502,-0.00107760,-0.00000157,-0.00010
 296,-0.00028623,0.00035832,0.00039983,0.00137257,-0.00055462,0.0000049
 0,0.00020460,0.00021648,-0.00001563,-0.00036515,0.00035938,0.00038186,
 -0.00026111,0.00058526,0.00004714,-0.00010537,0.00004397,-0.00008592,-
 0.00027736,-0.00002365,0.00137227,0.01514297,-0.01067647,-0.00086241,-
 0.01658270,0.01313016,-0.00915644,-0.13482221,0.14443702\\0.00007087,-
 0.00007528,-0.00005166,0.00001109,0.00001921,-0.00001404,-0.00000794,0
 .00002875,-0.00000483,-0.00001349,0.00001391,0.00002606,-0.00008437,-0
 .00003457,0.00001089,-0.00002415,0.00005457,0.00002153,0.00000861,0.00
 003048,0.00001384,-0.00002506,-0.00000883,0.00000259,0.00000111,-0.000
 00684,-0.00000264,-0.00000458,-0.00000323,-0.00003617,-0.00002699,-0.0
 0003793,0.00002284,0.00001416,-0.00001908,0.00001871,0.00003738,-0.000
 00191,0.00000797,0.00000987,-0.00000702,-0.00001190,-0.00000267,0.0000
 1187,0.00000702,0.00001024,0.00002614,-0.00001176,0.00002593,0.0000097
 6,0.00000156\\\@


 Everywhere is walking distance if you have the time.
                                    -- Steven Wright
 Job cpu time:  0 days  0 hours  2 minutes 22.5 seconds.
 File lengths (MBytes):  RWF=     25 Int=      0 D2E=      0 Chk=      2 Scr=      1
 Normal termination of Gaussian 09 at Mon Jan 22 17:41:35 2018.
