 Entering Gaussian System, Link 0=g09
 Input=2,2-dimethyl-butane.inp
 Output=2,2-dimethyl-butane.log
 Initial command:
 /usr/local/g09/l1.exe /home/g09scr/Gau-25968.inp -scrdir=/home/g09scr/
 Entering Link 1 = /usr/local/g09/l1.exe PID=     25970.
  
 Copyright (c) 1988,1990,1992,1993,1995,1998,2003,2009,2010,
            Gaussian, Inc.  All Rights Reserved.
  
 This is part of the Gaussian(R) 09 program.  It is based on
 the Gaussian(R) 03 system (copyright 2003, Gaussian, Inc.),
 the Gaussian(R) 98 system (copyright 1998, Gaussian, Inc.),
 the Gaussian(R) 94 system (copyright 1995, Gaussian, Inc.),
 the Gaussian 92(TM) system (copyright 1992, Gaussian, Inc.),
 the Gaussian 90(TM) system (copyright 1990, Gaussian, Inc.),
 the Gaussian 88(TM) system (copyright 1988, Gaussian, Inc.),
 the Gaussian 86(TM) system (copyright 1986, Carnegie Mellon
 University), and the Gaussian 82(TM) system (copyright 1983,
 Carnegie Mellon University). Gaussian is a federally registered
 trademark of Gaussian, Inc.
  
 This software contains proprietary and confidential information,
 including trade secrets, belonging to Gaussian, Inc.
  
 This software is provided under written license and may be
 used, copied, transmitted, or stored only in accord with that
 written license.
  
 The following legend is applicable only to US Government
 contracts under FAR:
  
                    RESTRICTED RIGHTS LEGEND
  
 Use, reproduction and disclosure by the US Government is
 subject to restrictions as set forth in subparagraphs (a)
 and (c) of the Commercial Computer Software - Restricted
 Rights clause in FAR 52.227-19.
  
 Gaussian, Inc.
 340 Quinnipiac St., Bldg. 40, Wallingford CT 06492
  
  
 ---------------------------------------------------------------
 Warning -- This program may not be used in any manner that
 competes with the business of Gaussian, Inc. or will provide
 assistance to any competitor of Gaussian, Inc.  The licensee
 of this program is prohibited from giving any competitor of
 Gaussian, Inc. access to this program.  By using this program,
 the user acknowledges that Gaussian, Inc. is engaged in the
 business of creating and licensing software in the field of
 computational chemistry and represents and warrants to the
 licensee that it is not a competitor of Gaussian, Inc. and that
 it will not use this program in any manner prohibited above.
 ---------------------------------------------------------------
  

 Cite this work as:
 Gaussian 09, Revision B.01,
 M. J. Frisch, G. W. Trucks, H. B. Schlegel, G. E. Scuseria, 
 M. A. Robb, J. R. Cheeseman, G. Scalmani, V. Barone, B. Mennucci, 
 G. A. Petersson, H. Nakatsuji, M. Caricato, X. Li, H. P. Hratchian, 
 A. F. Izmaylov, J. Bloino, G. Zheng, J. L. Sonnenberg, M. Hada, 
 M. Ehara, K. Toyota, R. Fukuda, J. Hasegawa, M. Ishida, T. Nakajima, 
 Y. Honda, O. Kitao, H. Nakai, T. Vreven, J. A. Montgomery, Jr., 
 J. E. Peralta, F. Ogliaro, M. Bearpark, J. J. Heyd, E. Brothers, 
 K. N. Kudin, V. N. Staroverov, T. Keith, R. Kobayashi, J. Normand, 
 K. Raghavachari, A. Rendell, J. C. Burant, S. S. Iyengar, J. Tomasi, 
 M. Cossi, N. Rega, J. M. Millam, M. Klene, J. E. Knox, J. B. Cross, 
 V. Bakken, C. Adamo, J. Jaramillo, R. Gomperts, R. E. Stratmann, 
 O. Yazyev, A. J. Austin, R. Cammi, C. Pomelli, J. W. Ochterski, 
 R. L. Martin, K. Morokuma, V. G. Zakrzewski, G. A. Voth, 
 P. Salvador, J. J. Dannenberg, S. Dapprich, A. D. Daniels, 
 O. Farkas, J. B. Foresman, J. V. Ortiz, J. Cioslowski, 
 and D. J. Fox, Gaussian, Inc., Wallingford CT, 2010.
 
 ******************************************
 Gaussian 09:  EM64L-G09RevB.01 12-Aug-2010
                23-Jan-2018 
 ******************************************
 %nproc=4
 Will use up to    4 processors via shared memory.
 %mem=60gb
 ----------------------------
 #B3LYP/6-31G* fopt test freq
 ----------------------------
 1/14=-1,18=20,19=15,26=3,38=1/1,3;
 2/9=110,12=2,14=103,17=6,18=5,40=1/2;
 3/5=1,6=6,7=1,11=2,16=1,25=1,30=1,71=1,74=-5/1,2,3;
 4//1;
 5/5=2,38=5/2;
 6/7=2,8=2,9=2,10=2,28=1/1;
 7//1,2,3,16;
 1/14=-1,18=20,19=15/3(2);
 2/9=110/2;
 99//99;
 2/9=110/2;
 3/5=1,6=6,7=1,11=2,16=1,25=1,30=1,71=1,74=-5/1,2,3;
 4/5=5,16=3/1;
 5/5=2,38=5/2;
 7//1,2,3,16;
 1/14=-1,18=20,19=15/3(-5);
 2/9=110/2;
 6/7=2,8=2,9=2,10=2,19=2,28=1/1;
 99/9=1/99;
 -----------------------------------
 IsomerC6H14/2,2-dimethyl-butane.xyz
 -----------------------------------
 Symbolic Z-matrix:
 Charge =  0 Multiplicity = 1
 6                     1.89338  -1.07939   0. 
 6                     1.17097   0.27165   0. 
 6                    -0.37299   0.22103   0. 
 6                    -0.89501   1.66593   0. 
 6                    -0.89501  -0.4956    1.25434 
 6                    -0.89501  -0.4956   -1.25434 
 1                    -1.99916   1.68663   0. 
 1                     2.98601  -0.92924   0. 
 1                    -0.50975  -0.01576   2.17196 
 1                    -0.50975  -0.01576  -2.17196 
 1                    -0.59891  -1.55793   1.27252 
 1                    -0.59891  -1.55793  -1.27252 
 1                    -1.99819  -0.45675   1.28897 
 1                    -1.99819  -0.45675  -1.28897 
 1                     1.64333  -1.67748   0.89165 
 1                     1.64333  -1.67748  -0.89165 
 1                     1.49428   0.85331   0.88517 
 1                     1.49428   0.85331  -0.88517 
 1                    -0.5432    2.21187   0.89329 
 1                    -0.5432    2.21187  -0.89329 
 

 GradGradGradGradGradGradGradGradGradGradGradGradGradGradGradGradGradGrad
 Berny optimization.
 Initialization pass.
                           ----------------------------
                           !    Initial Parameters    !
                           ! (Angstroms and Degrees)  !
 --------------------------                            --------------------------
 ! Name  Definition              Value          Derivative Info.                !
 --------------------------------------------------------------------------------
 ! R1    R(1,2)                  1.5321         estimate D2E/DX2                !
 ! R2    R(1,8)                  1.1029         estimate D2E/DX2                !
 ! R3    R(1,15)                 1.1024         estimate D2E/DX2                !
 ! R4    R(1,16)                 1.1024         estimate D2E/DX2                !
 ! R5    R(2,3)                  1.5448         estimate D2E/DX2                !
 ! R6    R(2,17)                 1.1074         estimate D2E/DX2                !
 ! R7    R(2,18)                 1.1074         estimate D2E/DX2                !
 ! R8    R(3,4)                  1.5363         estimate D2E/DX2                !
 ! R9    R(3,5)                  1.536          estimate D2E/DX2                !
 ! R10   R(3,6)                  1.536          estimate D2E/DX2                !
 ! R11   R(4,7)                  1.1044         estimate D2E/DX2                !
 ! R12   R(4,19)                 1.1044         estimate D2E/DX2                !
 ! R13   R(4,20)                 1.1044         estimate D2E/DX2                !
 ! R14   R(5,9)                  1.1048         estimate D2E/DX2                !
 ! R15   R(5,11)                 1.103          estimate D2E/DX2                !
 ! R16   R(5,13)                 1.1044         estimate D2E/DX2                !
 ! R17   R(6,10)                 1.1048         estimate D2E/DX2                !
 ! R18   R(6,12)                 1.103          estimate D2E/DX2                !
 ! R19   R(6,14)                 1.1044         estimate D2E/DX2                !
 ! A1    A(2,1,8)              110.3089         estimate D2E/DX2                !
 ! A2    A(2,1,15)             111.8072         estimate D2E/DX2                !
 ! A3    A(2,1,16)             111.8072         estimate D2E/DX2                !
 ! A4    A(8,1,15)             107.3719         estimate D2E/DX2                !
 ! A5    A(8,1,16)             107.3719         estimate D2E/DX2                !
 ! A6    A(15,1,16)            107.9634         estimate D2E/DX2                !
 ! A7    A(1,2,3)              116.2557         estimate D2E/DX2                !
 ! A8    A(1,2,17)             108.9971         estimate D2E/DX2                !
 ! A9    A(1,2,18)             108.9971         estimate D2E/DX2                !
 ! A10   A(3,2,17)             107.999          estimate D2E/DX2                !
 ! A11   A(3,2,18)             107.999          estimate D2E/DX2                !
 ! A12   A(17,2,18)            106.1282         estimate D2E/DX2                !
 ! A13   A(2,3,4)              107.9858         estimate D2E/DX2                !
 ! A14   A(2,3,5)              110.7904         estimate D2E/DX2                !
 ! A15   A(2,3,6)              110.7904         estimate D2E/DX2                !
 ! A16   A(4,3,5)              108.8631         estimate D2E/DX2                !
 ! A17   A(4,3,6)              108.8631         estimate D2E/DX2                !
 ! A18   A(5,3,6)              109.4931         estimate D2E/DX2                !
 ! A19   A(3,4,7)              110.9381         estimate D2E/DX2                !
 ! A20   A(3,4,19)             110.8962         estimate D2E/DX2                !
 ! A21   A(3,4,20)             110.8962         estimate D2E/DX2                !
 ! A22   A(7,4,19)             108.0116         estimate D2E/DX2                !
 ! A23   A(7,4,20)             108.0116         estimate D2E/DX2                !
 ! A24   A(19,4,20)            107.9608         estimate D2E/DX2                !
 ! A25   A(3,5,9)              110.9219         estimate D2E/DX2                !
 ! A26   A(3,5,11)             111.8127         estimate D2E/DX2                !
 ! A27   A(3,5,13)             110.4052         estimate D2E/DX2                !
 ! A28   A(9,5,11)             108.1197         estimate D2E/DX2                !
 ! A29   A(9,5,13)             107.8783         estimate D2E/DX2                !
 ! A30   A(11,5,13)            107.549          estimate D2E/DX2                !
 ! A31   A(3,6,10)             110.9219         estimate D2E/DX2                !
 ! A32   A(3,6,12)             111.8127         estimate D2E/DX2                !
 ! A33   A(3,6,14)             110.4052         estimate D2E/DX2                !
 ! A34   A(10,6,12)            108.1197         estimate D2E/DX2                !
 ! A35   A(10,6,14)            107.8783         estimate D2E/DX2                !
 ! A36   A(12,6,14)            107.549          estimate D2E/DX2                !
 ! D1    D(8,1,2,3)            180.0            estimate D2E/DX2                !
 ! D2    D(8,1,2,17)           -57.7095         estimate D2E/DX2                !
 ! D3    D(8,1,2,18)            57.7095         estimate D2E/DX2                !
 ! D4    D(15,1,2,3)           -60.595          estimate D2E/DX2                !
 ! D5    D(15,1,2,17)           61.6956         estimate D2E/DX2                !
 ! D6    D(15,1,2,18)          177.1145         estimate D2E/DX2                !
 ! D7    D(16,1,2,3)            60.595          estimate D2E/DX2                !
 ! D8    D(16,1,2,17)         -177.1145         estimate D2E/DX2                !
 ! D9    D(16,1,2,18)          -61.6956         estimate D2E/DX2                !
 ! D10   D(1,2,3,4)            180.0            estimate D2E/DX2                !
 ! D11   D(1,2,3,5)             60.866          estimate D2E/DX2                !
 ! D12   D(1,2,3,6)            -60.866          estimate D2E/DX2                !
 ! D13   D(17,2,3,4)            57.1864         estimate D2E/DX2                !
 ! D14   D(17,2,3,5)           -61.9476         estimate D2E/DX2                !
 ! D15   D(17,2,3,6)           176.3204         estimate D2E/DX2                !
 ! D16   D(18,2,3,4)           -57.1864         estimate D2E/DX2                !
 ! D17   D(18,2,3,5)          -176.3204         estimate D2E/DX2                !
 ! D18   D(18,2,3,6)            61.9476         estimate D2E/DX2                !
 ! D19   D(2,3,4,7)            180.0            estimate D2E/DX2                !
 ! D20   D(2,3,4,19)           -59.9694         estimate D2E/DX2                !
 ! D21   D(2,3,4,20)            59.9694         estimate D2E/DX2                !
 ! D22   D(5,3,4,7)            -59.6498         estimate D2E/DX2                !
 ! D23   D(5,3,4,19)            60.3808         estimate D2E/DX2                !
 ! D24   D(5,3,4,20)          -179.6804         estimate D2E/DX2                !
 ! D25   D(6,3,4,7)             59.6498         estimate D2E/DX2                !
 ! D26   D(6,3,4,19)           179.6804         estimate D2E/DX2                !
 ! D27   D(6,3,4,20)           -60.3808         estimate D2E/DX2                !
 ! D28   D(2,3,5,9)             55.9064         estimate D2E/DX2                !
 ! D29   D(2,3,5,11)           -64.8668         estimate D2E/DX2                !
 ! D30   D(2,3,5,13)           175.4369         estimate D2E/DX2                !
 ! D31   D(4,3,5,9)            -62.6975         estimate D2E/DX2                !
 ! D32   D(4,3,5,11)           176.5293         estimate D2E/DX2                !
 ! D33   D(4,3,5,13)            56.833          estimate D2E/DX2                !
 ! D34   D(6,3,5,9)            178.3965         estimate D2E/DX2                !
 ! D35   D(6,3,5,11)            57.6234         estimate D2E/DX2                !
 ! D36   D(6,3,5,13)           -62.073          estimate D2E/DX2                !
 ! D37   D(2,3,6,10)           -55.9064         estimate D2E/DX2                !
 ! D38   D(2,3,6,12)            64.8668         estimate D2E/DX2                !
 ! D39   D(2,3,6,14)          -175.4369         estimate D2E/DX2                !
 ! D40   D(4,3,6,10)            62.6975         estimate D2E/DX2                !
 ! D41   D(4,3,6,12)          -176.5293         estimate D2E/DX2                !
 ! D42   D(4,3,6,14)           -56.833          estimate D2E/DX2                !
 ! D43   D(5,3,6,10)          -178.3965         estimate D2E/DX2                !
 ! D44   D(5,3,6,12)           -57.6234         estimate D2E/DX2                !
 ! D45   D(5,3,6,14)            62.073          estimate D2E/DX2                !
 --------------------------------------------------------------------------------
 Trust Radius=3.00D-01 FncErr=1.00D-07 GrdErr=1.00D-06
 Number of steps in this run=    110 maximum allowed number of steps=    120.
 GradGradGradGradGradGradGradGradGradGradGradGradGradGradGradGradGradGrad

                          Input orientation:                          
 ---------------------------------------------------------------------
 Center     Atomic      Atomic             Coordinates (Angstroms)
 Number     Number       Type             X           Y           Z
 ---------------------------------------------------------------------
      1          6           0        1.893379   -1.079391    0.000000
      2          6           0        1.170971    0.271650    0.000000
      3          6           0       -0.372993    0.221026    0.000000
      4          6           0       -0.895006    1.665926    0.000000
      5          6           0       -0.895006   -0.495598    1.254341
      6          6           0       -0.895006   -0.495598   -1.254341
      7          1           0       -1.999163    1.686633    0.000000
      8          1           0        2.986011   -0.929239    0.000000
      9          1           0       -0.509746   -0.015756    2.171955
     10          1           0       -0.509746   -0.015756   -2.171955
     11          1           0       -0.598905   -1.557930    1.272520
     12          1           0       -0.598905   -1.557930   -1.272520
     13          1           0       -1.998194   -0.456750    1.288967
     14          1           0       -1.998194   -0.456750   -1.288967
     15          1           0        1.643332   -1.677483    0.891650
     16          1           0        1.643332   -1.677483   -0.891650
     17          1           0        1.494275    0.853305    0.885165
     18          1           0        1.494275    0.853305   -0.885165
     19          1           0       -0.543203    2.211874    0.893290
     20          1           0       -0.543203    2.211874   -0.893290
 ---------------------------------------------------------------------
                    Distance matrix (angstroms):
                    1          2          3          4          5
     1  C    0.000000
     2  C    1.532053   0.000000
     3  C    2.612954   1.544794   0.000000
     4  C    3.913037   2.492442   1.536305   0.000000
     5  C    3.112760   2.535804   1.536040   2.499111   0.000000
     6  C    3.112760   2.535804   1.536040   2.499111   2.508682
     7  H    4.775225   3.471588   2.189163   1.104351   2.748575
     8  H    1.102901   2.176351   3.550495   4.668744   4.101671
     9  H    3.409357   2.761304   2.189099   2.773782   1.104848
    10  H    3.409357   2.761304   2.189099   2.773782   3.481117
    11  H    2.838976   2.845897   2.198870   3.478539   1.102976
    12  H    2.838976   2.845897   2.198870   3.478539   2.757037
    13  H    4.146500   3.497944   2.182222   2.717391   1.104415
    14  H    4.146500   3.497944   2.182222   2.717391   2.772535
    15  H    1.102396   2.194831   2.909457   4.291455   2.823395
    16  H    1.102396   2.194831   2.909457   4.291455   3.527788
    17  H    2.162895   1.107414   2.161014   2.674422   2.768482
    18  H    2.162895   1.107414   2.161014   2.674422   3.479323
    19  H    4.191339   2.738764   2.188701   1.104442   2.754002
    20  H    4.191339   2.738764   2.188701   1.104442   3.473685
                    6          7          8          9         10
     6  C    0.000000
     7  H    2.748575   0.000000
     8  H    4.101671   5.629809   0.000000
     9  H    3.481117   3.135902   4.215704   0.000000
    10  H    1.104848   3.135902   4.215704   4.343910   0.000000
    11  H    2.757037   3.755958   3.855669   1.787522   3.775004
    12  H    1.102976   3.755958   3.855669   3.775004   1.787522
    13  H    2.772535   2.501105   5.169814   1.785951   3.793143
    14  H    1.104415   2.501105   5.169814   3.793143   1.785951
    15  H    3.527788   5.037865   1.776991   3.006038   4.096676
    16  H    2.823395   5.037865   1.776991   4.096676   3.006038
    17  H    3.479323   3.698927   2.487219   2.535191   3.757306
    18  H    2.768482   3.698927   2.487219   3.757306   2.535191
    19  H    3.473685   1.787083   4.808317   2.568743   3.789351
    20  H    2.754002   1.787083   4.808317   3.789351   2.568743
                   11         12         13         14         15
    11  H    0.000000
    12  H    2.545040   0.000000
    13  H    1.780696   3.119587   0.000000
    14  H    3.119587   1.780696   2.577934   0.000000
    15  H    2.277495   3.118582   3.861187   4.416559   0.000000
    16  H    3.118582   2.277495   4.416559   3.861187   1.783300
    17  H    3.216442   3.853707   3.751885   4.317457   2.535182
    18  H    3.853707   3.216442   4.317457   3.751885   3.095832
    19  H    3.789240   4.348018   3.065145   3.741764   4.461842
    20  H    4.348018   3.789240   3.741764   3.065145   4.805626
                   16         17         18         19         20
    16  H    0.000000
    17  H    3.095832   0.000000
    18  H    2.535182   1.770330   0.000000
    19  H    4.805626   2.448896   3.026537   0.000000
    20  H    4.461842   3.026537   2.448896   1.786580   0.000000
 Stoichiometry    C6H14
 Framework group  CS[SG(C4H2),X(C2H12)]
 Deg. of freedom    30
 Full point group                 CS      NOp   2
 Largest Abelian subgroup         CS      NOp   2
 Largest concise Abelian subgroup CS      NOp   2
                         Standard orientation:                         
 ---------------------------------------------------------------------
 Center     Atomic      Atomic             Coordinates (Angstroms)
 Number     Number       Type             X           Y           Z
 ---------------------------------------------------------------------
      1          6           0        1.893379   -1.079391    0.000000
      2          6           0        1.170971    0.271650    0.000000
      3          6           0       -0.372993    0.221026    0.000000
      4          6           0       -0.895006    1.665926    0.000000
      5          6           0       -0.895006   -0.495598    1.254341
      6          6           0       -0.895006   -0.495598   -1.254341
      7          1           0       -1.999163    1.686633    0.000000
      8          1           0        2.986011   -0.929239    0.000000
      9          1           0       -0.509746   -0.015756    2.171955
     10          1           0       -0.509746   -0.015756   -2.171955
     11          1           0       -0.598905   -1.557930    1.272520
     12          1           0       -0.598905   -1.557930   -1.272520
     13          1           0       -1.998194   -0.456750    1.288967
     14          1           0       -1.998194   -0.456750   -1.288967
     15          1           0        1.643332   -1.677483    0.891650
     16          1           0        1.643332   -1.677483   -0.891650
     17          1           0        1.494275    0.853305    0.885165
     18          1           0        1.494275    0.853305   -0.885165
     19          1           0       -0.543203    2.211874    0.893290
     20          1           0       -0.543203    2.211874   -0.893290
 ---------------------------------------------------------------------
 Rotational constants (GHZ):      4.2819459      2.4914402      2.4831115
 Standard basis: 6-31G(d) (6D, 7F)
 There are    75 symmetry adapted basis functions of A'  symmetry.
 There are    43 symmetry adapted basis functions of A"  symmetry.
 Integral buffers will be    131072 words long.
 Raffenetti 2 integral format.
 Two-electron integral symmetry is turned on.
   118 basis functions,   224 primitive gaussians,   118 cartesian basis functions
    25 alpha electrons       25 beta electrons
       nuclear repulsion energy       265.3389127253 Hartrees.
 NAtoms=   20 NActive=   20 NUniq=   13 SFac= 2.37D+00 NAtFMM=   50 NAOKFM=F Big=F
 One-electron integrals computed using PRISM.
 NBasis=   118 RedAO= T  NBF=    75    43
 NBsUse=   118 1.00D-06 NBFU=    75    43
 Harris functional with IExCor=  402 diagonalized for initial guess.
 ExpMin= 1.61D-01 ExpMax= 3.05D+03 ExpMxC= 4.57D+02 IAcc=1 IRadAn=         1 AccDes= 0.00D+00
 HarFok:  IExCor=  402 AccDes= 0.00D+00 IRadAn=         1 IDoV= 1
 ScaDFX=  1.000000  1.000000  1.000000  1.000000
 FoFCou: FMM=F IPFlag=           0 FMFlag=      100000 FMFlg1=           0
         NFxFlg=           0 DoJE=T BraDBF=F KetDBF=T FulRan=T
         Omega=  0.000000  0.000000  1.000000  0.000000  0.000000 ICntrl=     500 IOpCl=  0
         NMat0=    1 NMatS0=    1 NMatT0=    0 NMatD0=    1 NMtDS0=    0 NMtDT0=    0
         I1Cent=           4 NGrid=           0.
 Petite list used in FoFCou.
 Initial guess orbital symmetries:
       Occupied  (A') (A") (A') (A') (A') (A') (A') (A') (A") (A')
                 (A') (A') (A') (A") (A') (A") (A') (A') (A") (A')
                 (A") (A") (A') (A") (A')
       Virtual   (A') (A') (A") (A') (A') (A") (A') (A") (A') (A')
                 (A') (A") (A') (A') (A") (A") (A') (A') (A") (A')
                 (A") (A') (A') (A") (A') (A') (A") (A') (A') (A')
                 (A") (A") (A') (A') (A") (A") (A') (A') (A') (A")
                 (A') (A") (A') (A") (A') (A") (A') (A') (A") (A')
                 (A') (A") (A') (A") (A') (A") (A') (A') (A") (A')
                 (A") (A') (A') (A") (A') (A') (A") (A') (A") (A')
                 (A") (A') (A') (A') (A") (A') (A") (A') (A") (A')
                 (A") (A') (A") (A') (A") (A') (A') (A') (A') (A")
                 (A') (A') (A')
 The electronic state of the initial guess is 1-A'.
 Requested convergence on RMS density matrix=1.00D-08 within 128 cycles.
 Requested convergence on MAX density matrix=1.00D-06.
 Requested convergence on             energy=1.00D-06.
 No special actions if energy rises.
 Keep R1 ints in memory in canonical form, NReq=25818198.
 Integral accuracy reduced to 1.0D-05 until final iterations.
 Initial convergence to 1.0D-05 achieved.  Increase integral accuracy.
 SCF Done:  E(RB3LYP) =  -237.083081087     A.U. after   12 cycles
             Convg  =    0.5702D-08             -V/T =  2.0108

 **********************************************************************

            Population analysis using the SCF density.

 **********************************************************************

 Orbital symmetries:
       Occupied  (A') (A') (A') (A") (A') (A') (A') (A') (A") (A')
                 (A') (A') (A') (A") (A') (A") (A') (A') (A") (A")
                 (A') (A") (A") (A') (A')
       Virtual   (A') (A') (A") (A') (A") (A') (A') (A') (A") (A')
                 (A") (A') (A") (A') (A") (A') (A') (A") (A') (A')
                 (A') (A") (A") (A') (A') (A") (A') (A') (A') (A")
                 (A') (A") (A') (A') (A") (A") (A') (A") (A') (A')
                 (A') (A") (A") (A') (A') (A") (A') (A') (A") (A')
                 (A') (A") (A') (A") (A') (A") (A') (A') (A') (A")
                 (A') (A") (A') (A") (A') (A') (A") (A') (A") (A')
                 (A") (A') (A') (A") (A') (A') (A") (A') (A") (A')
                 (A") (A') (A") (A') (A") (A') (A') (A') (A') (A")
                 (A') (A') (A')
 The electronic state is 1-A'.
 Alpha  occ. eigenvalues --  -10.18942 -10.17572 -10.17156 -10.16921 -10.16920
 Alpha  occ. eigenvalues --  -10.16903  -0.81841  -0.72975  -0.67632  -0.67621
 Alpha  occ. eigenvalues --   -0.61605  -0.52017  -0.45254  -0.45105  -0.43055
 Alpha  occ. eigenvalues --   -0.41759  -0.39314  -0.37572  -0.37045  -0.35720
 Alpha  occ. eigenvalues --   -0.35212  -0.33814  -0.31112  -0.30929  -0.30346
 Alpha virt. eigenvalues --    0.07498   0.12253   0.13208   0.13473   0.14118
 Alpha virt. eigenvalues --    0.14419   0.15945   0.17529   0.17591   0.19505
 Alpha virt. eigenvalues --    0.20358   0.20748   0.22405   0.22872   0.24324
 Alpha virt. eigenvalues --    0.25163   0.26115   0.26478   0.27337   0.49609
 Alpha virt. eigenvalues --    0.50945   0.51786   0.52313   0.52903   0.58911
 Alpha virt. eigenvalues --    0.60594   0.62526   0.63712   0.69721   0.71066
 Alpha virt. eigenvalues --    0.71408   0.75290   0.76768   0.81959   0.85966
 Alpha virt. eigenvalues --    0.87624   0.88604   0.90106   0.90128   0.90585
 Alpha virt. eigenvalues --    0.91400   0.91444   0.93257   0.93553   0.95309
 Alpha virt. eigenvalues --    0.95875   0.96507   0.97611   0.99477   0.99643
 Alpha virt. eigenvalues --    1.02594   1.04278   1.30085   1.39332   1.40417
 Alpha virt. eigenvalues --    1.49156   1.51606   1.60903   1.64792   1.68629
 Alpha virt. eigenvalues --    1.73167   1.73573   1.81182   1.87702   1.88697
 Alpha virt. eigenvalues --    1.93566   1.93629   1.98061   2.09241   2.10403
 Alpha virt. eigenvalues --    2.10773   2.12422   2.13379   2.24221   2.24261
 Alpha virt. eigenvalues --    2.25485   2.26237   2.26747   2.29686   2.35261
 Alpha virt. eigenvalues --    2.35988   2.48984   2.58333   2.69361   2.72245
 Alpha virt. eigenvalues --    2.74885   2.77085   4.13421   4.25370   4.31193
 Alpha virt. eigenvalues --    4.31304   4.44870   4.68177
          Condensed to atoms (all electrons):
              1          2          3          4          5          6
     1  C    5.082013   0.368500  -0.038271   0.004834  -0.005931  -0.005931
     2  C    0.368500   5.024284   0.398996  -0.058581  -0.058552  -0.058552
     3  C   -0.038271   0.398996   4.710110   0.389674   0.387275   0.387275
     4  C    0.004834  -0.058581   0.389674   5.155618  -0.062753  -0.062753
     5  C   -0.005931  -0.058552   0.387275  -0.062753   5.155855  -0.065720
     6  C   -0.005931  -0.058552   0.387275  -0.062753  -0.065720   5.155855
     7  H   -0.000172   0.005496  -0.028502   0.362753  -0.005129  -0.005129
     8  H    0.370210  -0.027126   0.004208  -0.000136   0.000100   0.000100
     9  H   -0.000255  -0.005031  -0.030169  -0.004612   0.364876   0.005903
    10  H   -0.000255  -0.005031  -0.030169  -0.004612   0.005903   0.364876
    11  H    0.001653  -0.005768  -0.028337   0.005723   0.366344  -0.005085
    12  H    0.001653  -0.005768  -0.028337   0.005723  -0.005085   0.366344
    13  H    0.000100   0.005620  -0.029821  -0.006116   0.365740  -0.004459
    14  H    0.000100   0.005620  -0.029821  -0.006116  -0.004459   0.365740
    15  H    0.376455  -0.034264  -0.005969   0.000067   0.003476  -0.000466
    16  H    0.376455  -0.034264  -0.005969   0.000067  -0.000466   0.003476
    17  H   -0.039692   0.366516  -0.035776  -0.005680  -0.007245   0.006436
    18  H   -0.039692   0.366516  -0.035776  -0.005680   0.006436  -0.007245
    19  H    0.000001  -0.005520  -0.029820   0.364772  -0.005052   0.006002
    20  H    0.000001  -0.005520  -0.029820   0.364772   0.006002  -0.005052
              7          8          9         10         11         12
     1  C   -0.000172   0.370210  -0.000255  -0.000255   0.001653   0.001653
     2  C    0.005496  -0.027126  -0.005031  -0.005031  -0.005768  -0.005768
     3  C   -0.028502   0.004208  -0.030169  -0.030169  -0.028337  -0.028337
     4  C    0.362753  -0.000136  -0.004612  -0.004612   0.005723   0.005723
     5  C   -0.005129   0.000100   0.364876   0.005903   0.366344  -0.005085
     6  C   -0.005129   0.000100   0.005903   0.364876  -0.005085   0.366344
     7  H    0.587570   0.000002  -0.000140  -0.000140  -0.000055  -0.000055
     8  H    0.000002   0.580758  -0.000032  -0.000032  -0.000059  -0.000059
     9  H   -0.000140  -0.000032   0.586758  -0.000200  -0.030604  -0.000026
    10  H   -0.000140  -0.000032  -0.000200   0.586758  -0.000026  -0.030604
    11  H   -0.000055  -0.000059  -0.030604  -0.000026   0.579928   0.004135
    12  H   -0.000055  -0.000059  -0.000026  -0.030604   0.004135   0.579928
    13  H    0.004683   0.000000  -0.030223  -0.000074  -0.030511  -0.000185
    14  H    0.004683   0.000000  -0.000074  -0.030223  -0.000185  -0.030511
    15  H    0.000002  -0.030968   0.000329   0.000057   0.002886   0.000217
    16  H    0.000002  -0.030968   0.000057   0.000329   0.000217   0.002886
    17  H   -0.000038  -0.003242   0.004919  -0.000032  -0.000084  -0.000059
    18  H   -0.000038  -0.003242  -0.000032   0.004919  -0.000059  -0.000084
    19  H   -0.030090  -0.000003   0.004058  -0.000070  -0.000049  -0.000199
    20  H   -0.030090  -0.000003  -0.000070   0.004058  -0.000199  -0.000049
             13         14         15         16         17         18
     1  C    0.000100   0.000100   0.376455   0.376455  -0.039692  -0.039692
     2  C    0.005620   0.005620  -0.034264  -0.034264   0.366516   0.366516
     3  C   -0.029821  -0.029821  -0.005969  -0.005969  -0.035776  -0.035776
     4  C   -0.006116  -0.006116   0.000067   0.000067  -0.005680  -0.005680
     5  C    0.365740  -0.004459   0.003476  -0.000466  -0.007245   0.006436
     6  C   -0.004459   0.365740  -0.000466   0.003476   0.006436  -0.007245
     7  H    0.004683   0.004683   0.000002   0.000002  -0.000038  -0.000038
     8  H    0.000000   0.000000  -0.030968  -0.030968  -0.003242  -0.003242
     9  H   -0.030223  -0.000074   0.000329   0.000057   0.004919  -0.000032
    10  H   -0.000074  -0.030223   0.000057   0.000329  -0.000032   0.004919
    11  H   -0.030511  -0.000185   0.002886   0.000217  -0.000084  -0.000059
    12  H   -0.000185  -0.030511   0.000217   0.002886  -0.000059  -0.000084
    13  H    0.586537   0.003887  -0.000118  -0.000023  -0.000075  -0.000187
    14  H    0.003887   0.586537  -0.000023  -0.000118  -0.000187  -0.000075
    15  H   -0.000118  -0.000023   0.575077  -0.032304  -0.004064   0.005153
    16  H   -0.000023  -0.000118  -0.032304   0.575077   0.005153  -0.004064
    17  H   -0.000075  -0.000187  -0.004064   0.005153   0.621586  -0.036879
    18  H   -0.000187  -0.000075   0.005153  -0.004064  -0.036879   0.621586
    19  H   -0.000150  -0.000019  -0.000005   0.000002   0.005502  -0.000249
    20  H   -0.000019  -0.000150   0.000002  -0.000005  -0.000249   0.005502
             19         20
     1  C    0.000001   0.000001
     2  C   -0.005520  -0.005520
     3  C   -0.029820  -0.029820
     4  C    0.364772   0.364772
     5  C   -0.005052   0.006002
     6  C    0.006002  -0.005052
     7  H   -0.030090  -0.030090
     8  H   -0.000003  -0.000003
     9  H    0.004058  -0.000070
    10  H   -0.000070   0.004058
    11  H   -0.000049  -0.000199
    12  H   -0.000199  -0.000049
    13  H   -0.000150  -0.000019
    14  H   -0.000019  -0.000150
    15  H   -0.000005   0.000002
    16  H    0.000002  -0.000005
    17  H    0.005502  -0.000249
    18  H   -0.000249   0.005502
    19  H    0.586048  -0.030222
    20  H   -0.030222   0.586048
 Mulliken atomic charges:
              1
     1  C   -0.451777
     2  C   -0.237571
     3  C    0.109019
     4  C   -0.436964
     5  C   -0.441614
     6  C   -0.441614
     7  H    0.134387
     8  H    0.140495
     9  H    0.134572
    10  H    0.134572
    11  H    0.140134
    12  H    0.140134
    13  H    0.135395
    14  H    0.135395
    15  H    0.144461
    16  H    0.144461
    17  H    0.123193
    18  H    0.123193
    19  H    0.135064
    20  H    0.135064
 Sum of Mulliken atomic charges =   0.00000
 Mulliken charges with hydrogens summed into heavy atoms:
              1
     1  C   -0.022360
     2  C    0.008816
     3  C    0.109019
     4  C   -0.032450
     5  C   -0.031512
     6  C   -0.031512
 Sum of Mulliken charges with hydrogens summed into heavy atoms =   0.00000
 Electronic spatial extent (au):  <R**2>=            701.7203
 Charge=              0.0000 electrons
 Dipole moment (field-independent basis, Debye):
    X=              0.0396    Y=             -0.0100    Z=              0.0000  Tot=              0.0408
 Quadrupole moment (field-independent basis, Debye-Ang):
   XX=            -41.6613   YY=            -42.0740   ZZ=            -41.6999
   XY=              0.1999   XZ=              0.0000   YZ=              0.0000
 Traceless Quadrupole moment (field-independent basis, Debye-Ang):
   XX=              0.1505   YY=             -0.2623   ZZ=              0.1118
   XY=              0.1999   XZ=              0.0000   YZ=              0.0000
 Octapole moment (field-independent basis, Debye-Ang**2):
  XXX=             -1.4033  YYY=             -1.9642  ZZZ=              0.0000  XYY=              0.6345
  XXY=              0.6342  XXZ=              0.0000  XZZ=              1.7143  YZZ=              1.3887
  YYZ=              0.0000  XYZ=              0.0000
 Hexadecapole moment (field-independent basis, Debye-Ang**3):
 XXXX=           -417.2551 YYYY=           -311.1004 ZZZZ=           -239.7143 XXXY=             56.4772
 XXXZ=              0.0000 YYYX=             59.2164 YYYZ=              0.0000 ZZZX=              0.0000
 ZZZY=              0.0000 XXYY=           -127.6666 XXZZ=           -114.0825 YYZZ=            -89.0412
 XXYZ=              0.0000 YYXZ=              0.0000 ZZXY=             18.1822
 N-N= 2.653389127253D+02 E-N=-1.077530237655D+03  KE= 2.345554846615D+02
 Symmetry A'   KE= 1.875582516578D+02
 Symmetry A"   KE= 4.699723300369D+01
 Calling FoFJK, ICntrl=      2127 FMM=F ISym2X=1 I1Cent= 0 IOpClX= 0 NMat=1 NMatS=1 NMatT=0.
 ***** Axes restored to original set *****
 -------------------------------------------------------------------
 Center     Atomic                   Forces (Hartrees/Bohr)
 Number     Number              X              Y              Z
 -------------------------------------------------------------------
      1        6           0.003464914   -0.002883463    0.000000000
      2        6           0.004077233    0.004166254    0.000000000
      3        6          -0.000488929    0.000152019    0.000000000
      4        6          -0.001977384    0.005244959    0.000000000
      5        6          -0.002587232   -0.002484269    0.004872332
      6        6          -0.002587232   -0.002484269   -0.004872332
      7        1           0.004729045    0.000785212    0.000000000
      8        1          -0.004220928   -0.001022795    0.000000000
      9        1          -0.002087098   -0.002643697   -0.003451782
     10        1          -0.002087098   -0.002643697    0.003451782
     11        1          -0.001603514    0.004525826    0.000631248
     12        1          -0.001603514    0.004525826   -0.000631248
     13        1           0.004689371   -0.000617792    0.000680492
     14        1           0.004689371   -0.000617792   -0.000680492
     15        1           0.001433248    0.001931945   -0.003822805
     16        1           0.001433248    0.001931945    0.003822805
     17        1          -0.000693274   -0.002454405   -0.004062245
     18        1          -0.000693274   -0.002454405    0.004062245
     19        1          -0.001943476   -0.001478701   -0.004025205
     20        1          -0.001943476   -0.001478701    0.004025205
 -------------------------------------------------------------------
 Cartesian Forces:  Max     0.005244959 RMS     0.002802610

 GradGradGradGradGradGradGradGradGradGradGradGradGradGradGradGradGradGrad
 Berny optimization.
 Internal  Forces:  Max     0.004782454 RMS     0.001986379
 Search for a local minimum.
 Step number   1 out of a maximum of  110
 All quantities printed in internal units (Hartrees-Bohrs-Radians)
 Mixed Optimization -- RFO/linear search
 Second derivative matrix not updated -- first step.
 ITU=  0
     Eigenvalues ---    0.00230   0.00286   0.00289   0.00289   0.00342
     Eigenvalues ---    0.03143   0.04443   0.04700   0.04919   0.04958
     Eigenvalues ---    0.05347   0.05387   0.05387   0.05482   0.05490
     Eigenvalues ---    0.05538   0.05538   0.05551   0.08902   0.12613
     Eigenvalues ---    0.14264   0.14532   0.16000   0.16000   0.16000
     Eigenvalues ---    0.16000   0.16000   0.16000   0.16000   0.16000
     Eigenvalues ---    0.16000   0.16000   0.16000   0.16000   0.21972
     Eigenvalues ---    0.28098   0.28849   0.28873   0.28873   0.29235
     Eigenvalues ---    0.32875   0.32875   0.33152   0.33152   0.33196
     Eigenvalues ---    0.33196   0.33199   0.33199   0.33205   0.33355
     Eigenvalues ---    0.33355   0.33363   0.33419   0.33419
 RFO step:  Lambda=-1.33010760D-03 EMin= 2.30000000D-03
 Linear search not attempted -- first point.
 Iteration  1 RMS(Cart)=  0.01709466 RMS(Int)=  0.00007115
 Iteration  2 RMS(Cart)=  0.00010338 RMS(Int)=  0.00001730
 Iteration  3 RMS(Cart)=  0.00000000 RMS(Int)=  0.00001730
 ClnCor:  largest displacement from symmetrization is 9.36D-12 for atom    16.
 Variable       Old X    -DE/DX   Delta X   Delta X   Delta X     New X
                                 (Linear)    (Quad)   (Total)
    R1        2.89516   0.00105   0.00000   0.00357   0.00357   2.89873
    R2        2.08418  -0.00433   0.00000  -0.01291  -0.01291   2.07127
    R3        2.08323  -0.00446   0.00000  -0.01330  -0.01330   2.06993
    R4        2.08323  -0.00446   0.00000  -0.01330  -0.01330   2.06993
    R5        2.91924   0.00476   0.00000   0.01686   0.01686   2.93610
    R6        2.09271  -0.00474   0.00000  -0.01436  -0.01436   2.07835
    R7        2.09271  -0.00474   0.00000  -0.01436  -0.01436   2.07835
    R8        2.90320   0.00328   0.00000   0.01132   0.01132   2.91451
    R9        2.90269   0.00334   0.00000   0.01150   0.01150   2.91420
   R10        2.90269   0.00334   0.00000   0.01150   0.01150   2.91420
   R11        2.08692  -0.00472   0.00000  -0.01416  -0.01416   2.07277
   R12        2.08709  -0.00460   0.00000  -0.01381  -0.01381   2.07328
   R13        2.08709  -0.00460   0.00000  -0.01381  -0.01381   2.07328
   R14        2.08786  -0.00474   0.00000  -0.01425  -0.01425   2.07361
   R15        2.08432  -0.00478   0.00000  -0.01428  -0.01428   2.07004
   R16        2.08704  -0.00468   0.00000  -0.01405  -0.01405   2.07299
   R17        2.08786  -0.00474   0.00000  -0.01425  -0.01425   2.07361
   R18        2.08432  -0.00478   0.00000  -0.01428  -0.01428   2.07004
   R19        2.08704  -0.00468   0.00000  -0.01405  -0.01405   2.07299
    A1        1.92525   0.00032   0.00000   0.00166   0.00166   1.92691
    A2        1.95140   0.00072   0.00000   0.00463   0.00462   1.95602
    A3        1.95140   0.00072   0.00000   0.00463   0.00462   1.95602
    A4        1.87399  -0.00058   0.00000  -0.00389  -0.00389   1.87010
    A5        1.87399  -0.00058   0.00000  -0.00389  -0.00389   1.87010
    A6        1.88432  -0.00073   0.00000  -0.00390  -0.00391   1.88040
    A7        2.02904   0.00333   0.00000   0.01757   0.01755   2.04660
    A8        1.90236  -0.00131   0.00000  -0.00715  -0.00723   1.89513
    A9        1.90236  -0.00131   0.00000  -0.00715  -0.00723   1.89513
   A10        1.88494  -0.00059   0.00000   0.00119   0.00120   1.88614
   A11        1.88494  -0.00059   0.00000   0.00119   0.00120   1.88614
   A12        1.85229   0.00024   0.00000  -0.00771  -0.00776   1.84452
   A13        1.88471  -0.00015   0.00000  -0.00201  -0.00200   1.88270
   A14        1.93366   0.00019   0.00000   0.00321   0.00321   1.93686
   A15        1.93366   0.00019   0.00000   0.00321   0.00321   1.93686
   A16        1.90002  -0.00009   0.00000  -0.00265  -0.00264   1.89738
   A17        1.90002  -0.00009   0.00000  -0.00265  -0.00264   1.89738
   A18        1.91102  -0.00005   0.00000   0.00063   0.00061   1.91163
   A19        1.93624   0.00082   0.00000   0.00501   0.00499   1.94123
   A20        1.93550   0.00099   0.00000   0.00619   0.00617   1.94167
   A21        1.93550   0.00099   0.00000   0.00619   0.00617   1.94167
   A22        1.88516  -0.00096   0.00000  -0.00607  -0.00608   1.87908
   A23        1.88516  -0.00096   0.00000  -0.00607  -0.00608   1.87908
   A24        1.88427  -0.00102   0.00000  -0.00614  -0.00616   1.87811
   A25        1.93595   0.00086   0.00000   0.00515   0.00514   1.94109
   A26        1.95150   0.00070   0.00000   0.00429   0.00428   1.95578
   A27        1.92693   0.00100   0.00000   0.00643   0.00642   1.93335
   A28        1.88704  -0.00089   0.00000  -0.00590  -0.00590   1.88114
   A29        1.88283  -0.00095   0.00000  -0.00573  -0.00575   1.87708
   A30        1.87708  -0.00087   0.00000  -0.00513  -0.00514   1.87194
   A31        1.93595   0.00086   0.00000   0.00515   0.00514   1.94109
   A32        1.95150   0.00070   0.00000   0.00429   0.00428   1.95578
   A33        1.92693   0.00100   0.00000   0.00643   0.00642   1.93335
   A34        1.88704  -0.00089   0.00000  -0.00590  -0.00590   1.88114
   A35        1.88283  -0.00095   0.00000  -0.00573  -0.00575   1.87708
   A36        1.87708  -0.00087   0.00000  -0.00513  -0.00514   1.87194
    D1        3.14159   0.00000   0.00000   0.00000   0.00000   3.14159
    D2       -1.00722   0.00057   0.00000   0.00848   0.00845  -0.99877
    D3        1.00722  -0.00057   0.00000  -0.00848  -0.00845   0.99877
    D4       -1.05758  -0.00004   0.00000  -0.00077  -0.00077  -1.05835
    D5        1.07679   0.00053   0.00000   0.00771   0.00767   1.08446
    D6        3.09123  -0.00061   0.00000  -0.00925  -0.00922   3.08201
    D7        1.05758   0.00004   0.00000   0.00077   0.00077   1.05835
    D8       -3.09123   0.00061   0.00000   0.00925   0.00922  -3.08201
    D9       -1.07679  -0.00053   0.00000  -0.00771  -0.00767  -1.08446
   D10        3.14159   0.00000   0.00000   0.00000   0.00000   3.14159
   D11        1.06231   0.00010   0.00000   0.00259   0.00259   1.06490
   D12       -1.06231  -0.00010   0.00000  -0.00259  -0.00259  -1.06490
   D13        0.99809  -0.00016   0.00000  -0.00389  -0.00392   0.99417
   D14       -1.08119  -0.00006   0.00000  -0.00131  -0.00133  -1.08252
   D15        3.07737  -0.00025   0.00000  -0.00648  -0.00651   3.07086
   D16       -0.99809   0.00016   0.00000   0.00389   0.00392  -0.99417
   D17       -3.07737   0.00025   0.00000   0.00648   0.00651  -3.07086
   D18        1.08119   0.00006   0.00000   0.00131   0.00133   1.08252
   D19        3.14159   0.00000   0.00000   0.00000   0.00000   3.14159
   D20       -1.04666  -0.00001   0.00000  -0.00022  -0.00023  -1.04689
   D21        1.04666   0.00001   0.00000   0.00022   0.00023   1.04689
   D22       -1.04109   0.00008   0.00000   0.00116   0.00116  -1.03992
   D23        1.05384   0.00007   0.00000   0.00094   0.00094   1.05478
   D24       -3.13601   0.00009   0.00000   0.00139   0.00139  -3.13462
   D25        1.04109  -0.00008   0.00000  -0.00116  -0.00116   1.03992
   D26        3.13601  -0.00009   0.00000  -0.00139  -0.00139   3.13462
   D27       -1.05384  -0.00007   0.00000  -0.00094  -0.00094  -1.05478
   D28        0.97575  -0.00017   0.00000  -0.00267  -0.00267   0.97308
   D29       -1.13214  -0.00012   0.00000  -0.00165  -0.00165  -1.13379
   D30        3.06195  -0.00016   0.00000  -0.00232  -0.00232   3.05963
   D31       -1.09428  -0.00004   0.00000  -0.00048  -0.00049  -1.09476
   D32        3.08102   0.00001   0.00000   0.00053   0.00054   3.08155
   D33        0.99192  -0.00002   0.00000  -0.00014  -0.00014   0.99178
   D34        3.11361   0.00015   0.00000   0.00392   0.00392   3.11753
   D35        1.00572   0.00021   0.00000   0.00494   0.00494   1.01066
   D36       -1.08338   0.00017   0.00000   0.00427   0.00427  -1.07911
   D37       -0.97575   0.00017   0.00000   0.00267   0.00267  -0.97308
   D38        1.13214   0.00012   0.00000   0.00165   0.00165   1.13379
   D39       -3.06195   0.00016   0.00000   0.00232   0.00232  -3.05963
   D40        1.09428   0.00004   0.00000   0.00048   0.00049   1.09476
   D41       -3.08102  -0.00001   0.00000  -0.00053  -0.00054  -3.08155
   D42       -0.99192   0.00002   0.00000   0.00014   0.00014  -0.99178
   D43       -3.11361  -0.00015   0.00000  -0.00392  -0.00392  -3.11753
   D44       -1.00572  -0.00021   0.00000  -0.00494  -0.00494  -1.01066
   D45        1.08338  -0.00017   0.00000  -0.00427  -0.00427   1.07911
         Item               Value     Threshold  Converged?
 Maximum Force            0.004782     0.000450     NO 
 RMS     Force            0.001986     0.000300     NO 
 Maximum Displacement     0.071523     0.001800     NO 
 RMS     Displacement     0.017051     0.001200     NO 
 Predicted change in Energy=-6.684575D-04
 GradGradGradGradGradGradGradGradGradGradGradGradGradGradGradGradGradGrad

                          Input orientation:                          
 ---------------------------------------------------------------------
 Center     Atomic      Atomic             Coordinates (Angstroms)
 Number     Number       Type             X           Y           Z
 ---------------------------------------------------------------------
      1          6           0        1.917452   -1.079079    0.000000
      2          6           0        1.174943    0.263180    0.000000
      3          6           0       -0.378099    0.217383    0.000000
      4          6           0       -0.894451    1.670671    0.000000
      5          6           0       -0.909287   -0.496369    1.259585
      6          6           0       -0.909287   -0.496369   -1.259585
      7          1           0       -1.990849    1.702524    0.000000
      8          1           0        3.001349   -0.916192    0.000000
      9          1           0       -0.527644   -0.024787    2.173940
     10          1           0       -0.527644   -0.024787   -2.173940
     11          1           0       -0.624035   -1.553705    1.284385
     12          1           0       -0.624035   -1.553705   -1.284385
     13          1           0       -2.004773   -0.453915    1.297988
     14          1           0       -2.004773   -0.453915   -1.297988
     15          1           0        1.681180   -1.680162    0.884697
     16          1           0        1.681180   -1.680162   -0.884697
     17          1           0        1.499095    0.843034    0.876519
     18          1           0        1.499095    0.843034   -0.876519
     19          1           0       -0.545557    2.216624    0.885388
     20          1           0       -0.545557    2.216624   -0.885388
 ---------------------------------------------------------------------
                    Distance matrix (angstroms):
                    1          2          3          4          5
     1  C    0.000000
     2  C    1.533942   0.000000
     3  C    2.636355   1.553717   0.000000
     4  C    3.932928   2.502684   1.542293   0.000000
     5  C    3.149057   2.550977   1.542127   2.506559   0.000000
     6  C    3.149057   2.550977   1.542127   2.506559   2.519169
     7  H    4.797096   3.477636   2.192398   1.096861   2.755261
     8  H    1.096068   2.174092   3.564500   4.676443   4.129877
     9  H    3.437447   2.776282   2.192493   2.781213   1.097309
    10  H    3.437447   2.776282   2.192493   2.781213   3.486708
    11  H    2.886879   2.861300   2.201563   3.481289   1.095419
    12  H    2.886879   2.861300   2.201563   3.481289   2.769676
    13  H    4.178451   3.508503   2.186660   2.726070   1.096980
    14  H    4.178451   3.508503   2.186660   2.726070   2.782637
    15  H    1.095360   2.194434   2.936664   4.317945   2.872704
    16  H    1.095360   2.194434   2.936664   4.317945   3.565085
    17  H    2.153561   1.099814   2.164159   2.679987   2.782274
    18  H    2.153561   1.099814   2.164159   2.679987   3.486724
    19  H    4.208561   2.749541   2.192925   1.097134   2.762726
    20  H    4.208561   2.749541   2.192925   1.097134   3.477577
                    6          7          8          9         10
     6  C    0.000000
     7  H    2.755261   0.000000
     8  H    4.129877   5.637350   0.000000
     9  H    3.486708   3.138565   4.239623   0.000000
    10  H    1.097309   3.138565   4.239623   4.347880   0.000000
    11  H    2.769676   3.757772   3.898650   1.771493   3.782445
    12  H    1.095419   3.757772   3.898650   3.782445   1.771493
    13  H    2.782637   2.516982   5.192276   1.770128   3.797413
    14  H    1.096980   2.516982   5.192276   3.797413   1.770128
    15  H    3.565085   5.070409   1.763288   3.046525   4.120003
    16  H    2.872704   5.070409   1.763288   4.120003   3.046525
    17  H    3.486724   3.699557   2.473849   2.558141   3.763786
    18  H    2.782274   3.699557   2.473849   3.763786   2.558141
    19  H    3.477577   1.771180   4.814457   2.585462   3.792590
    20  H    2.762726   1.771180   4.814457   3.792590   2.585462
                   11         12         13         14         15
    11  H    0.000000
    12  H    2.568769   0.000000
    13  H    1.765264   3.128038   0.000000
    14  H    3.128038   1.765264   2.595977   0.000000
    15  H    2.343023   3.167795   3.906499   4.455788   0.000000
    16  H    3.167795   2.343023   4.455788   3.906499   1.769394
    17  H    3.227754   3.862842   3.759894   4.322922   2.529771
    18  H    3.862842   3.227754   4.322922   3.759894   3.082459
    19  H    3.792194   4.350799   3.071047   3.745427   4.488129
    20  H    4.350799   3.792194   3.745427   3.071047   4.824573
                   16         17         18         19         20
    16  H    0.000000
    17  H    3.082459   0.000000
    18  H    2.529771   1.753038   0.000000
    19  H    4.824573   2.463216   3.028476   0.000000
    20  H    4.488129   3.028476   2.463216   1.770776   0.000000
 Stoichiometry    C6H14
 Framework group  CS[SG(C4H2),X(C2H12)]
 Deg. of freedom    30
 Full point group                 CS      NOp   2
 Largest Abelian subgroup         CS      NOp   2
 Largest concise Abelian subgroup CS      NOp   2
                         Standard orientation:                         
 ---------------------------------------------------------------------
 Center     Atomic      Atomic             Coordinates (Angstroms)
 Number     Number       Type             X           Y           Z
 ---------------------------------------------------------------------
      1          6           0        1.925296   -1.065063    0.000000
      2          6           0        1.173615    0.272081    0.000000
      3          6           0       -0.379077    0.215652    0.000000
      4          6           0       -0.905367    1.665372    0.000000
      5          6           0       -0.905367   -0.501720    1.259585
      6          6           0       -0.905367   -0.501720   -1.259585
      7          1           0       -2.001957    1.689718    0.000000
      8          1           0        3.008052   -0.894760    0.000000
      9          1           0       -0.526961   -0.027536    2.173940
     10          1           0       -0.526961   -0.027536   -2.173940
     11          1           0       -0.612883   -1.557077    1.284385
     12          1           0       -0.612883   -1.557077   -1.284385
     13          1           0       -2.001117   -0.466767    1.297988
     14          1           0       -2.001117   -0.466767   -1.297988
     15          1           0        1.693144   -1.667749    0.884697
     16          1           0        1.693144   -1.667749   -0.884697
     17          1           0        1.493789    0.854141    0.876519
     18          1           0        1.493789    0.854141   -0.876519
     19          1           0       -0.560219    2.213701    0.885388
     20          1           0       -0.560219    2.213701   -0.885388
 ---------------------------------------------------------------------
 Rotational constants (GHZ):      4.2547097      2.4613784      2.4527792
 Standard basis: 6-31G(d) (6D, 7F)
 There are    75 symmetry adapted basis functions of A'  symmetry.
 There are    43 symmetry adapted basis functions of A"  symmetry.
 Integral buffers will be    131072 words long.
 Raffenetti 2 integral format.
 Two-electron integral symmetry is turned on.
   118 basis functions,   224 primitive gaussians,   118 cartesian basis functions
    25 alpha electrons       25 beta electrons
       nuclear repulsion energy       264.6276924519 Hartrees.
 NAtoms=   20 NActive=   20 NUniq=   13 SFac= 2.37D+00 NAtFMM=   50 NAOKFM=F Big=F
 One-electron integrals computed using PRISM.
 NBasis=   118 RedAO= T  NBF=    75    43
 NBsUse=   118 1.00D-06 NBFU=    75    43
 Initial guess read from the read-write file.
 B after Tr=     0.000000    0.000000    0.000000
         Rot=    1.000000    0.000000    0.000000    0.000000 Ang=   0.00 deg.
 Initial guess orbital symmetries:
       Occupied  (A') (A') (A') (A") (A') (A') (A') (A') (A") (A')
                 (A') (A') (A') (A") (A') (A") (A') (A') (A") (A")
                 (A') (A") (A") (A') (A')
       Virtual   (A') (A') (A") (A') (A") (A') (A') (A') (A") (A')
                 (A") (A') (A") (A') (A") (A') (A') (A") (A') (A')
                 (A') (A") (A") (A') (A') (A") (A') (A') (A') (A")
                 (A') (A") (A') (A') (A") (A") (A') (A") (A') (A')
                 (A') (A") (A") (A') (A') (A") (A') (A') (A") (A')
                 (A') (A") (A') (A") (A') (A") (A') (A') (A') (A")
                 (A') (A") (A') (A") (A') (A') (A") (A') (A") (A')
                 (A") (A') (A') (A") (A') (A') (A") (A') (A") (A')
                 (A") (A') (A") (A') (A") (A') (A') (A') (A') (A")
                 (A') (A') (A')
 Harris functional with IExCor=  402 diagonalized for initial guess.
 ExpMin= 1.61D-01 ExpMax= 3.05D+03 ExpMxC= 4.57D+02 IAcc=1 IRadAn=         1 AccDes= 0.00D+00
 HarFok:  IExCor=  402 AccDes= 0.00D+00 IRadAn=         1 IDoV= 1
 ScaDFX=  1.000000  1.000000  1.000000  1.000000
 FoFCou: FMM=F IPFlag=           0 FMFlag=      100000 FMFlg1=           0
         NFxFlg=           0 DoJE=T BraDBF=F KetDBF=T FulRan=T
         Omega=  0.000000  0.000000  1.000000  0.000000  0.000000 ICntrl=     500 IOpCl=  0
         NMat0=    1 NMatS0=    1 NMatT0=    0 NMatD0=    1 NMtDS0=    0 NMtDT0=    0
         I1Cent=           4 NGrid=           0.
 Petite list used in FoFCou.
 Requested convergence on RMS density matrix=1.00D-08 within 128 cycles.
 Requested convergence on MAX density matrix=1.00D-06.
 Requested convergence on             energy=1.00D-06.
 No special actions if energy rises.
 Keep R1 ints in memory in canonical form, NReq=25818198.
 Integral accuracy reduced to 1.0D-05 until final iterations.
 Initial convergence to 1.0D-05 achieved.  Increase integral accuracy.
 SCF Done:  E(RB3LYP) =  -237.083663052     A.U. after   10 cycles
             Convg  =    0.6519D-08             -V/T =  2.0105
 Calling FoFJK, ICntrl=      2127 FMM=F ISym2X=1 I1Cent= 0 IOpClX= 0 NMat=1 NMatS=1 NMatT=0.
 ***** Axes restored to original set *****
 -------------------------------------------------------------------
 Center     Atomic                   Forces (Hartrees/Bohr)
 Number     Number              X              Y              Z
 -------------------------------------------------------------------
      1        6          -0.000552668   -0.000221576    0.000000000
      2        6          -0.000016733    0.000509242    0.000000000
      3        6          -0.000070140   -0.000060021    0.000000000
      4        6           0.000317650    0.000171492    0.000000000
      5        6           0.000185890    0.000082645   -0.000079203
      6        6           0.000185890    0.000082645    0.000079203
      7        1          -0.000088111   -0.000257706    0.000000000
      8        1           0.000003904    0.000407480    0.000000000
      9        1           0.000138585    0.000144926   -0.000053721
     10        1           0.000138585    0.000144926    0.000053721
     11        1           0.000436073   -0.000285636   -0.000191107
     12        1           0.000436073   -0.000285636    0.000191107
     13        1          -0.000057935    0.000105559   -0.000208951
     14        1          -0.000057935    0.000105559    0.000208951
     15        1          -0.000286524   -0.000182003    0.000231382
     16        1          -0.000286524   -0.000182003   -0.000231382
     17        1          -0.000305530   -0.000078551    0.000122327
     18        1          -0.000305530   -0.000078551   -0.000122327
     19        1           0.000092490   -0.000061394    0.000128796
     20        1           0.000092490   -0.000061394   -0.000128796
 -------------------------------------------------------------------
 Cartesian Forces:  Max     0.000552668 RMS     0.000205422

 GradGradGradGradGradGradGradGradGradGradGradGradGradGradGradGradGradGrad
 Berny optimization.
 Using GEDIIS/GDIIS optimizer.
 Internal  Forces:  Max     0.001759512 RMS     0.000348661
 Search for a local minimum.
 Step number   2 out of a maximum of  110
 All quantities printed in internal units (Hartrees-Bohrs-Radians)
 Mixed Optimization -- En-DIIS/RFO-DIIS
 Update second derivatives using D2CorX and points    1    2
 DE= -5.82D-04 DEPred=-6.68D-04 R= 8.71D-01
 SS=  1.41D+00  RLast= 7.29D-02 DXNew= 5.0454D-01 2.1865D-01
 Trust test= 8.71D-01 RLast= 7.29D-02 DXMaxT set to 3.00D-01
 ITU=  1  0
 Use linear search instead of GDIIS.
     Eigenvalues ---    0.00230   0.00286   0.00289   0.00289   0.00342
     Eigenvalues ---    0.03043   0.04433   0.04756   0.04935   0.05021
     Eigenvalues ---    0.05301   0.05334   0.05337   0.05425   0.05425
     Eigenvalues ---    0.05476   0.05476   0.05523   0.09122   0.12738
     Eigenvalues ---    0.14256   0.14538   0.15921   0.16000   0.16000
     Eigenvalues ---    0.16000   0.16000   0.16000   0.16000   0.16000
     Eigenvalues ---    0.16000   0.16000   0.16000   0.16412   0.22598
     Eigenvalues ---    0.28195   0.28830   0.28873   0.29206   0.29555
     Eigenvalues ---    0.32558   0.32875   0.33050   0.33152   0.33169
     Eigenvalues ---    0.33196   0.33198   0.33199   0.33204   0.33350
     Eigenvalues ---    0.33355   0.33389   0.33419   0.34500
 RFO step:  Lambda=-4.93731210D-05 EMin= 2.30000000D-03
 Quartic linear search produced a step of -0.11356.
 Iteration  1 RMS(Cart)=  0.01040811 RMS(Int)=  0.00005272
 Iteration  2 RMS(Cart)=  0.00005773 RMS(Int)=  0.00000281
 Iteration  3 RMS(Cart)=  0.00000000 RMS(Int)=  0.00000281
 ClnCor:  largest displacement from symmetrization is 8.19D-11 for atom    20.
 Variable       Old X    -DE/DX   Delta X   Delta X   Delta X     New X
                                 (Linear)    (Quad)   (Total)
    R1        2.89873  -0.00037  -0.00041  -0.00057  -0.00097   2.89776
    R2        2.07127   0.00006   0.00147  -0.00181  -0.00035   2.07092
    R3        2.06993   0.00035   0.00151  -0.00109   0.00042   2.07035
    R4        2.06993   0.00035   0.00151  -0.00109   0.00042   2.07035
    R5        2.93610  -0.00176  -0.00191  -0.00297  -0.00489   2.93121
    R6        2.07835  -0.00004   0.00163  -0.00229  -0.00066   2.07769
    R7        2.07835  -0.00004   0.00163  -0.00229  -0.00066   2.07769
    R8        2.91451  -0.00033  -0.00128   0.00071  -0.00057   2.91394
    R9        2.91420  -0.00070  -0.00131  -0.00040  -0.00171   2.91249
   R10        2.91420  -0.00070  -0.00131  -0.00040  -0.00171   2.91249
   R11        2.07277   0.00007   0.00161  -0.00196  -0.00036   2.07241
   R12        2.07328   0.00011   0.00157  -0.00182  -0.00025   2.07303
   R13        2.07328   0.00011   0.00157  -0.00182  -0.00025   2.07303
   R14        2.07361   0.00007   0.00162  -0.00199  -0.00038   2.07324
   R15        2.07004   0.00038   0.00162  -0.00117   0.00045   2.07050
   R16        2.07299   0.00006   0.00160  -0.00199  -0.00040   2.07260
   R17        2.07361   0.00007   0.00162  -0.00199  -0.00038   2.07324
   R18        2.07004   0.00038   0.00162  -0.00117   0.00045   2.07050
   R19        2.07299   0.00006   0.00160  -0.00199  -0.00040   2.07260
    A1        1.92691  -0.00047  -0.00019  -0.00203  -0.00222   1.92469
    A2        1.95602  -0.00007  -0.00052   0.00017  -0.00036   1.95567
    A3        1.95602  -0.00007  -0.00052   0.00017  -0.00036   1.95567
    A4        1.87010   0.00032   0.00044   0.00145   0.00189   1.87199
    A5        1.87010   0.00032   0.00044   0.00145   0.00189   1.87199
    A6        1.88040   0.00001   0.00044  -0.00106  -0.00061   1.87979
    A7        2.04660  -0.00175  -0.00199  -0.00553  -0.00753   2.03907
    A8        1.89513   0.00064   0.00082   0.00169   0.00251   1.89764
    A9        1.89513   0.00064   0.00082   0.00169   0.00251   1.89764
   A10        1.88614   0.00036  -0.00014   0.00021   0.00007   1.88622
   A11        1.88614   0.00036  -0.00014   0.00021   0.00007   1.88622
   A12        1.84452  -0.00012   0.00088   0.00251   0.00339   1.84792
   A13        1.88270   0.00014   0.00023   0.00120   0.00144   1.88414
   A14        1.93686  -0.00025  -0.00036  -0.00351  -0.00388   1.93298
   A15        1.93686  -0.00025  -0.00036  -0.00351  -0.00388   1.93298
   A16        1.89738   0.00014   0.00030   0.00301   0.00331   1.90069
   A17        1.89738   0.00014   0.00030   0.00301   0.00331   1.90069
   A18        1.91163   0.00010  -0.00007   0.00009   0.00000   1.91163
   A19        1.94123  -0.00030  -0.00057  -0.00103  -0.00160   1.93963
   A20        1.94167  -0.00010  -0.00070   0.00043  -0.00027   1.94140
   A21        1.94167  -0.00010  -0.00070   0.00043  -0.00027   1.94140
   A22        1.87908   0.00020   0.00069   0.00008   0.00077   1.87985
   A23        1.87908   0.00020   0.00069   0.00008   0.00077   1.87985
   A24        1.87811   0.00014   0.00070   0.00003   0.00073   1.87884
   A25        1.94109  -0.00017  -0.00058  -0.00034  -0.00092   1.94017
   A26        1.95578  -0.00040  -0.00049  -0.00173  -0.00222   1.95356
   A27        1.93335  -0.00019  -0.00073   0.00034  -0.00039   1.93296
   A28        1.88114   0.00023   0.00067  -0.00037   0.00030   1.88144
   A29        1.87708   0.00023   0.00065   0.00071   0.00137   1.87845
   A30        1.87194   0.00035   0.00058   0.00153   0.00211   1.87405
   A31        1.94109  -0.00017  -0.00058  -0.00034  -0.00092   1.94017
   A32        1.95578  -0.00040  -0.00049  -0.00173  -0.00222   1.95356
   A33        1.93335  -0.00019  -0.00073   0.00034  -0.00039   1.93296
   A34        1.88114   0.00023   0.00067  -0.00037   0.00030   1.88144
   A35        1.87708   0.00023   0.00065   0.00071   0.00137   1.87845
   A36        1.87194   0.00035   0.00058   0.00153   0.00211   1.87405
    D1        3.14159   0.00000   0.00000   0.00000   0.00000   3.14159
    D2       -0.99877  -0.00026  -0.00096  -0.00236  -0.00332  -1.00209
    D3        0.99877   0.00026   0.00096   0.00236   0.00332   1.00209
    D4       -1.05835   0.00004   0.00009   0.00057   0.00065  -1.05770
    D5        1.08446  -0.00022  -0.00087  -0.00180  -0.00267   1.08180
    D6        3.08201   0.00031   0.00105   0.00293   0.00397   3.08599
    D7        1.05835  -0.00004  -0.00009  -0.00057  -0.00065   1.05770
    D8       -3.08201  -0.00031  -0.00105  -0.00293  -0.00397  -3.08599
    D9       -1.08446   0.00022   0.00087   0.00180   0.00267  -1.08180
   D10        3.14159   0.00000   0.00000   0.00000   0.00000   3.14159
   D11        1.06490  -0.00011  -0.00029  -0.00237  -0.00266   1.06224
   D12       -1.06490   0.00011   0.00029   0.00237   0.00266  -1.06224
   D13        0.99417   0.00011   0.00044   0.00157   0.00201   0.99619
   D14       -1.08252   0.00000   0.00015  -0.00080  -0.00065  -1.08316
   D15        3.07086   0.00023   0.00074   0.00394   0.00467   3.07553
   D16       -0.99417  -0.00011  -0.00044  -0.00157  -0.00201  -0.99619
   D17       -3.07086  -0.00023  -0.00074  -0.00394  -0.00467  -3.07553
   D18        1.08252   0.00000  -0.00015   0.00080   0.00065   1.08316
   D19        3.14159   0.00000   0.00000   0.00000   0.00000   3.14159
   D20       -1.04689  -0.00002   0.00003  -0.00031  -0.00028  -1.04717
   D21        1.04689   0.00002  -0.00003   0.00031   0.00028   1.04717
   D22       -1.03992  -0.00014  -0.00013  -0.00179  -0.00193  -1.04185
   D23        1.05478  -0.00016  -0.00011  -0.00210  -0.00221   1.05258
   D24       -3.13462  -0.00012  -0.00016  -0.00149  -0.00165  -3.13627
   D25        1.03992   0.00014   0.00013   0.00179   0.00193   1.04185
   D26        3.13462   0.00012   0.00016   0.00149   0.00165   3.13627
   D27       -1.05478   0.00016   0.00011   0.00210   0.00221  -1.05258
   D28        0.97308   0.00017   0.00030   0.01420   0.01451   0.98759
   D29       -1.13379   0.00027   0.00019   0.01611   0.01630  -1.11749
   D30        3.05963   0.00022   0.00026   0.01510   0.01536   3.07499
   D31       -1.09476   0.00005   0.00006   0.01295   0.01301  -1.08176
   D32        3.08155   0.00016  -0.00006   0.01486   0.01480   3.09635
   D33        0.99178   0.00010   0.00002   0.01385   0.01386   1.00565
   D34        3.11753  -0.00025  -0.00045   0.00748   0.00703   3.12456
   D35        1.01066  -0.00015  -0.00056   0.00939   0.00883   1.01949
   D36       -1.07911  -0.00020  -0.00048   0.00838   0.00789  -1.07122
   D37       -0.97308  -0.00017  -0.00030  -0.01420  -0.01451  -0.98759
   D38        1.13379  -0.00027  -0.00019  -0.01611  -0.01630   1.11749
   D39       -3.05963  -0.00022  -0.00026  -0.01510  -0.01536  -3.07499
   D40        1.09476  -0.00005  -0.00006  -0.01295  -0.01301   1.08176
   D41       -3.08155  -0.00016   0.00006  -0.01486  -0.01480  -3.09635
   D42       -0.99178  -0.00010  -0.00002  -0.01385  -0.01386  -1.00565
   D43       -3.11753   0.00025   0.00045  -0.00748  -0.00703  -3.12456
   D44       -1.01066   0.00015   0.00056  -0.00939  -0.00883  -1.01949
   D45        1.07911   0.00020   0.00048  -0.00838  -0.00789   1.07122
         Item               Value     Threshold  Converged?
 Maximum Force            0.001760     0.000450     NO 
 RMS     Force            0.000349     0.000300     NO 
 Maximum Displacement     0.043266     0.001800     NO 
 RMS     Displacement     0.010418     0.001200     NO 
 Predicted change in Energy=-3.470500D-05
 GradGradGradGradGradGradGradGradGradGradGradGradGradGradGradGradGradGrad

                          Input orientation:                          
 ---------------------------------------------------------------------
 Center     Atomic      Atomic             Coordinates (Angstroms)
 Number     Number       Type             X           Y           Z
 ---------------------------------------------------------------------
      1          6           0        1.904536   -1.082051    0.000000
      2          6           0        1.173341    0.265820    0.000000
      3          6           0       -0.377147    0.221185    0.000000
      4          6           0       -0.894468    1.673807    0.000000
      5          6           0       -0.902809   -0.495996    1.258848
      6          6           0       -0.902809   -0.495996   -1.258848
      7          1           0       -1.990749    1.703096    0.000000
      8          1           0        2.989210   -0.925706    0.000000
      9          1           0       -0.529906   -0.016702    2.172560
     10          1           0       -0.529906   -0.016702   -2.172560
     11          1           0       -0.601140   -1.548959    1.285930
     12          1           0       -0.601140   -1.548959   -1.285930
     13          1           0       -1.998705   -0.468283    1.292772
     14          1           0       -1.998705   -0.468283   -1.292772
     15          1           0        1.662533   -1.681283    0.884680
     16          1           0        1.662533   -1.681283   -0.884680
     17          1           0        1.497924    0.843488    0.877366
     18          1           0        1.497924    0.843488   -0.877366
     19          1           0       -0.546107    2.219624    0.885517
     20          1           0       -0.546107    2.219624   -0.885517
 ---------------------------------------------------------------------
                    Distance matrix (angstroms):
                    1          2          3          4          5
     1  C    0.000000
     2  C    1.533428   0.000000
     3  C    2.627641   1.551130   0.000000
     4  C    3.927999   2.501652   1.541989   0.000000
     5  C    3.131987   2.544693   1.541223   2.508548   0.000000
     6  C    3.131987   2.544693   1.541223   2.508548   2.517695
     7  H    4.788557   3.475231   2.190838   1.096672   2.757592
     8  H    1.095884   2.171891   3.556363   4.673373   4.113048
     9  H    3.432417   2.775047   2.190877   2.776823   1.097109
    10  H    3.432417   2.775047   2.190877   2.776823   3.484729
    11  H    2.854826   2.845316   2.199363   3.482223   1.095659
    12  H    2.854826   2.845316   2.199363   3.482223   2.770493
    13  H    4.157314   3.503148   2.185424   2.734804   1.096771
    14  H    4.157314   3.503148   2.185424   2.734804   2.777142
    15  H    1.095583   2.193895   2.926147   4.310167   2.850594
    16  H    1.095583   2.193895   2.926147   4.310167   3.546913
    17  H    2.154716   1.099466   2.161694   2.680063   2.775475
    18  H    2.154716   1.099466   2.161694   2.680063   3.481544
    19  H    4.206049   2.749180   2.192360   1.097001   2.764273
    20  H    4.206049   2.749180   2.192360   1.097001   3.478524
                    6          7          8          9         10
     6  C    0.000000
     7  H    2.757592   0.000000
     8  H    4.113048   5.631215   0.000000
     9  H    3.484729   3.132377   4.234439   0.000000
    10  H    1.097109   3.132377   4.234439   4.345120   0.000000
    11  H    2.770493   3.763042   3.864281   1.771722   3.783390
    12  H    1.095659   3.763042   3.864281   3.783390   1.771722
    13  H    2.777142   2.527095   5.172986   1.770684   3.790755
    14  H    1.096771   2.527095   5.172986   3.790755   1.770684
    15  H    3.546913   5.057978   1.764547   3.039120   4.113919
    16  H    2.850594   5.057978   1.764547   4.113919   3.039120
    17  H    3.481544   3.698586   2.474621   2.555298   3.762190
    18  H    2.775475   3.698586   2.474621   3.762190   2.555298
    19  H    3.478524   1.771421   4.814115   2.580290   3.788568
    20  H    2.764273   1.771421   4.814115   3.788568   2.580290
                   11         12         13         14         15
    11  H    0.000000
    12  H    2.571860   0.000000
    13  H    1.766662   3.125820   0.000000
    14  H    3.125820   1.766662   2.585544   0.000000
    15  H    2.302764   3.138992   3.878475   4.429145   0.000000
    16  H    3.138992   2.302764   4.429145   3.878475   1.769360
    17  H    3.208862   3.848340   3.757621   4.319335   2.530141
    18  H    3.848340   3.208862   4.319335   3.757621   3.083240
    19  H    3.790195   4.349762   3.082328   3.752310   4.482763
    20  H    4.349762   3.790195   3.752310   3.082328   4.819622
                   16         17         18         19         20
    16  H    0.000000
    17  H    3.083240   0.000000
    18  H    2.530141   1.754733   0.000000
    19  H    4.819622   2.464118   3.029781   0.000000
    20  H    4.482763   3.029781   2.464118   1.771034   0.000000
 Stoichiometry    C6H14
 Framework group  CS[SG(C4H2),X(C2H12)]
 Deg. of freedom    30
 Full point group                 CS      NOp   2
 Largest Abelian subgroup         CS      NOp   2
 Largest concise Abelian subgroup CS      NOp   2
                         Standard orientation:                         
 ---------------------------------------------------------------------
 Center     Atomic      Atomic             Coordinates (Angstroms)
 Number     Number       Type             X           Y           Z
 ---------------------------------------------------------------------
      1          6           0        1.909250   -1.074594    0.000000
      2          6           0        1.172880    0.270455    0.000000
      3          6           0       -0.377425    0.219860    0.000000
      4          6           0       -0.900327    1.670483    0.000000
      5          6           0       -0.900327   -0.499336    1.258848
      6          6           0       -0.900327   -0.499336   -1.258848
      7          1           0       -1.996712    1.695557    0.000000
      8          1           0        2.993315   -0.914081    0.000000
      9          1           0       -0.529269   -0.018613    2.172560
     10          1           0       -0.529269   -0.018613   -2.172560
     11          1           0       -0.594612   -1.551132    1.285930
     12          1           0       -0.594612   -1.551132   -1.285930
     13          1           0       -1.996321   -0.475837    1.292772
     14          1           0       -1.996321   -0.475837   -1.292772
     15          1           0        1.669553   -1.674752    0.884680
     16          1           0        1.669553   -1.674752   -0.884680
     17          1           0        1.495239    0.849367    0.877366
     18          1           0        1.495239    0.849367   -0.877366
     19          1           0       -0.554067    2.217635    0.885517
     20          1           0       -0.554067    2.217635   -0.885517
 ---------------------------------------------------------------------
 Rotational constants (GHZ):      4.2606774      2.4725803      2.4641599
 Standard basis: 6-31G(d) (6D, 7F)
 There are    75 symmetry adapted basis functions of A'  symmetry.
 There are    43 symmetry adapted basis functions of A"  symmetry.
 Integral buffers will be    131072 words long.
 Raffenetti 2 integral format.
 Two-electron integral symmetry is turned on.
   118 basis functions,   224 primitive gaussians,   118 cartesian basis functions
    25 alpha electrons       25 beta electrons
       nuclear repulsion energy       264.9396292310 Hartrees.
 NAtoms=   20 NActive=   20 NUniq=   13 SFac= 2.37D+00 NAtFMM=   50 NAOKFM=F Big=F
 One-electron integrals computed using PRISM.
 NBasis=   118 RedAO= T  NBF=    75    43
 NBsUse=   118 1.00D-06 NBFU=    75    43
 Initial guess read from the read-write file.
 B after Tr=     0.000000    0.000000    0.000000
         Rot=    1.000000    0.000000    0.000000    0.000000 Ang=   0.00 deg.
 Initial guess orbital symmetries:
       Occupied  (A') (A') (A') (A") (A') (A') (A') (A') (A") (A')
                 (A') (A') (A') (A") (A') (A") (A') (A') (A") (A")
                 (A') (A") (A") (A') (A')
       Virtual   (A') (A') (A") (A') (A") (A') (A') (A') (A") (A')
                 (A") (A') (A") (A') (A") (A') (A') (A") (A') (A')
                 (A') (A") (A") (A') (A') (A") (A') (A') (A') (A")
                 (A') (A") (A') (A') (A") (A") (A') (A") (A') (A')
                 (A") (A') (A") (A') (A') (A") (A') (A') (A") (A')
                 (A') (A") (A') (A") (A') (A") (A') (A') (A') (A")
                 (A") (A') (A') (A") (A') (A') (A") (A') (A") (A')
                 (A") (A') (A') (A') (A") (A') (A") (A') (A") (A')
                 (A") (A') (A") (A') (A") (A') (A') (A') (A') (A")
                 (A') (A') (A')
 Harris functional with IExCor=  402 diagonalized for initial guess.
 ExpMin= 1.61D-01 ExpMax= 3.05D+03 ExpMxC= 4.57D+02 IAcc=1 IRadAn=         1 AccDes= 0.00D+00
 HarFok:  IExCor=  402 AccDes= 0.00D+00 IRadAn=         1 IDoV= 1
 ScaDFX=  1.000000  1.000000  1.000000  1.000000
 FoFCou: FMM=F IPFlag=           0 FMFlag=      100000 FMFlg1=           0
         NFxFlg=           0 DoJE=T BraDBF=F KetDBF=T FulRan=T
         Omega=  0.000000  0.000000  1.000000  0.000000  0.000000 ICntrl=     500 IOpCl=  0
         NMat0=    1 NMatS0=    1 NMatT0=    0 NMatD0=    1 NMtDS0=    0 NMtDT0=    0
         I1Cent=           4 NGrid=           0.
 Petite list used in FoFCou.
 Requested convergence on RMS density matrix=1.00D-08 within 128 cycles.
 Requested convergence on MAX density matrix=1.00D-06.
 Requested convergence on             energy=1.00D-06.
 No special actions if energy rises.
 Keep R1 ints in memory in canonical form, NReq=25818198.
 Integral accuracy reduced to 1.0D-05 until final iterations.
 Initial convergence to 1.0D-05 achieved.  Increase integral accuracy.
 SCF Done:  E(RB3LYP) =  -237.083686323     A.U. after    9 cycles
             Convg  =    0.7583D-08             -V/T =  2.0104
 Calling FoFJK, ICntrl=      2127 FMM=F ISym2X=1 I1Cent= 0 IOpClX= 0 NMat=1 NMatS=1 NMatT=0.
 ***** Axes restored to original set *****
 -------------------------------------------------------------------
 Center     Atomic                   Forces (Hartrees/Bohr)
 Number     Number              X              Y              Z
 -------------------------------------------------------------------
      1        6           0.000137796   -0.000002309    0.000000000
      2        6           0.000030883    0.000032158    0.000000000
      3        6          -0.000052963   -0.000000157    0.000000000
      4        6          -0.000021933   -0.000322529    0.000000000
      5        6          -0.000131357    0.000084427   -0.000089848
      6        6          -0.000131357    0.000084427    0.000089848
      7        1          -0.000247369   -0.000019461    0.000000000
      8        1           0.000183282    0.000016838    0.000000000
      9        1           0.000106106    0.000117945    0.000128069
     10        1           0.000106106    0.000117945   -0.000128069
     11        1          -0.000008171   -0.000073971   -0.000057020
     12        1          -0.000008171   -0.000073971    0.000057020
     13        1          -0.000173524    0.000013234   -0.000007971
     14        1          -0.000173524    0.000013234    0.000007971
     15        1           0.000031771   -0.000027844    0.000081215
     16        1           0.000031771   -0.000027844   -0.000081215
     17        1           0.000074981    0.000046219    0.000130674
     18        1           0.000074981    0.000046219   -0.000130674
     19        1           0.000085344   -0.000012279    0.000170929
     20        1           0.000085344   -0.000012279   -0.000170929
[...]
 1674,0.00139557,-0.00072991,0.00111674,0.00139557,0.00072991,-0.004366
 65,0.05194489,0.,0.,0.00074696,0.,0.,-0.00039803,0.,0.,-0.00175090,0.,
 0.,-0.04938367,-0.00107486,-0.00000344,0.00007545,0.00107486,0.0000034
 4,0.00007545,0.,0.,0.04827435,-0.30522348,-0.04157628,0.,-0.01504115,-
 0.00299589,0.,0.00130877,0.00324854,0.,-0.00111140,-0.00037000,0.,0.00
 025495,-0.00003550,-0.00031056,0.00025495,-0.00003550,0.00031056,-0.00
 015645,0.00041444,0.,0.33145037,-0.04226558,-0.05404730,0.,0.03306682,
 0.00457164,0.,0.00018590,-0.00592980,0.,0.00176697,0.00049087,0.,-0.00
 033292,-0.00061075,0.00040371,-0.00033292,-0.00061075,-0.00040371,0.00
 032783,-0.00064522,0.,0.04369625,0.05938966,0.,0.,-0.04937693,0.,0.,-0
 .00107672,0.,0.,-0.00002858,0.,0.,0.00022676,0.00020609,0.00032312,0.0
 0014774,-0.00020609,-0.00032312,0.00014774,0.,0.,0.00000939,0.,0.,0.04
 821079,-0.00002240,-0.00002899,-0.00004519,0.00089132,0.00075799,0.000
 95379,0.00300480,0.00592957,0.00973083,-0.00008506,0.00014167,-0.00042
 294,-0.08113844,-0.03999967,-0.07503566,-0.00064976,-0.00094521,0.0018
 0294,-0.00000921,-0.00010947,-0.00010267,-0.00000844,0.00000747,-0.000
 04105,0.08377967,0.00009899,0.00008061,-0.00008211,0.00029060,0.000561
 59,-0.00021811,0.00632475,0.00627617,0.01228791,0.00042452,0.00123918,
 0.00072679,-0.04009618,-0.10110266,-0.09514391,-0.00092415,-0.00122145
 ,0.00224816,0.00003702,-0.00009337,0.00003435,0.00004083,0.00004526,0.
 00000710,0.04562998,0.10618354,0.00037287,0.00003526,0.00000149,-0.001
 59822,-0.00098297,0.00044293,-0.01016519,-0.01329030,-0.02246647,-0.00
 034273,-0.00169320,0.00054097,-0.07474801,-0.09468965,-0.22440442,0.00
 323817,0.00438961,-0.00376826,0.00005511,0.00009679,-0.00001805,0.0000
 7076,-0.00004599,0.00002541,0.08153096,0.10354271,0.24613647,-0.000022
 40,-0.00002899,0.00004519,0.00089131,0.00075799,-0.00095379,0.00300480
 ,0.00592957,-0.00973083,-0.00008506,0.00014167,0.00042294,-0.00064976,
 -0.00094521,-0.00180294,-0.08113844,-0.03999967,0.07503566,-0.00000921
 ,-0.00010947,0.00010267,-0.00000844,0.00000747,0.00004105,0.00073690,0
 .00011560,-0.00063513,0.08377967,0.00009899,0.00008061,0.00008211,0.00
 029060,0.00056159,0.00021810,0.00632475,0.00627617,-0.01228791,0.00042
 452,0.00123918,-0.00072679,-0.00092415,-0.00122145,-0.00224816,-0.0400
 9618,-0.10110266,0.09514391,0.00003702,-0.00009337,-0.00003435,0.00004
 083,0.00004526,-0.00000710,0.00011560,0.00078101,-0.00080846,0.0456299
 8,0.10618354,-0.00037287,-0.00003526,0.00000149,0.00159822,0.00098297,
 0.00044293,0.01016519,0.01329030,-0.02246647,0.00034273,0.00169320,0.0
 0054097,-0.00323817,-0.00438961,-0.00376826,0.07474801,0.09468965,-0.2
 2440442,-0.00005511,-0.00009679,-0.00001805,-0.00007076,0.00004599,0.0
 0002541,0.00063513,0.00080846,-0.00179508,-0.08153096,-0.10354271,0.24
 613647,-0.00094190,-0.00012091,0.00058502,0.00042996,-0.00030312,-0.00
 068335,0.00302403,-0.01149997,-0.00120317,-0.00081702,-0.00066446,0.00
 153715,-0.06925681,0.07024148,-0.00087985,0.00004875,0.00026990,-0.000
 44041,0.00044280,-0.00026010,0.00016468,0.00007792,0.00003053,-0.00013
 533,0.00318865,-0.01255015,0.00089094,-0.00011716,-0.00015940,-0.00012
 289,0.07318072,0.00070094,-0.00041007,0.00066354,0.00085536,-0.0004967
 8,0.00000582,0.00422101,-0.01434450,-0.00098301,-0.00222077,-0.0003131
 4,0.00377131,0.06978447,-0.29084866,0.00277601,0.00002326,0.00040611,-
 0.00123587,0.00004190,0.00027135,-0.00012859,0.00011318,0.00044140,-0.
 00042228,0.00413569,-0.01294648,0.00023937,-0.00021452,0.00030144,0.00
 001795,-0.07833142,0.31670866,0.00044515,-0.00019611,0.00022056,-0.000
 71475,-0.00036750,0.00074439,-0.00962209,0.02593834,0.00031569,0.00245
 044,0.00167063,-0.00490328,-0.00098973,0.00213769,-0.04969286,-0.00045
 421,0.00126861,0.00157819,0.00000122,-0.00029196,-0.00008943,-0.000054
 97,-0.00012297,-0.00002001,0.00917641,-0.02638544,0.00123594,0.0001329
 9,-0.00025057,0.00035189,-0.00060395,-0.00441886,0.05122173,-0.0009419
 0,-0.00012091,-0.00058502,0.00042996,-0.00030312,0.00068335,0.00302403
 ,-0.01149997,0.00120317,-0.00081702,-0.00066446,-0.00153715,0.00004875
 ,0.00026990,0.00044041,-0.06925681,0.07024148,0.00087985,0.00044280,-0
 .00026010,-0.00016468,0.00007792,0.00003053,0.00013533,-0.00011716,-0.
 00015940,0.00012289,0.00318865,-0.01255015,-0.00089094,0.00025584,0.00
 005285,0.00011141,0.07318072,0.00070094,-0.00041007,-0.00066354,0.0008
 5536,-0.00049678,-0.00000582,0.00422101,-0.01434450,0.00098301,-0.0022
 2077,-0.00031314,-0.00377131,0.00002326,0.00040611,0.00123587,0.069784
 47,-0.29084866,-0.00277601,0.00004190,0.00027135,0.00012859,0.00011318
 ,0.00044140,0.00042228,-0.00021452,0.00030144,-0.00001795,0.00413569,-
 0.01294648,-0.00023937,0.00005285,0.00088711,-0.00074536,-0.07833142,0
 .31670866,-0.00044515,0.00019611,0.00022056,0.00071475,0.00036750,0.00
 074439,0.00962209,-0.02593834,0.00031569,-0.00245044,-0.00167063,-0.00
 490328,0.00045421,-0.00126861,0.00157819,0.00098973,-0.00213769,-0.049
 69286,-0.00000122,0.00029196,-0.00008943,0.00005497,0.00012297,-0.0000
 2001,-0.00013299,0.00025057,0.00035189,-0.00917641,0.02638544,0.001235
 94,-0.00011141,0.00074536,-0.00029977,0.00060395,0.00441886,0.05122173
 ,0.00026411,-0.00029379,-0.00017492,0.00107488,-0.00119267,0.00267934,
 -0.01225346,0.00035925,-0.00044055,0.00023336,0.00092004,-0.00081665,-
 0.30833369,0.00956647,0.00489635,0.00016280,0.00019179,-0.00096219,0.0
 0082740,-0.00081189,0.00022104,-0.00007293,0.00001883,0.00004126,-0.01
 036425,0.00078488,0.00013110,0.00038357,-0.00006567,0.00007211,-0.0082
 6885,0.00041558,-0.00024884,-0.00005145,-0.00004805,0.00003489,0.33582
 411,0.00041808,-0.00033674,0.00039614,-0.00042579,-0.00188495,0.003167
 27,-0.01620689,-0.00066052,-0.00025149,-0.00150272,0.00069693,-0.00031
 435,0.01014524,-0.04912763,-0.00095418,0.00032086,0.00010245,-0.000635
 02,0.00042846,-0.00010555,0.00035171,0.00004792,0.00022411,-0.00022842
 ,-0.01567247,0.00024423,0.00101231,-0.00002087,-0.00017906,-0.00012373
 ,0.03296069,0.00005897,-0.00025297,0.00017813,-0.00000111,0.00003168,-
 0.00994499,0.04982590,-0.00027172,0.00049534,-0.00004117,0.00038629,0.
 00258944,-0.00482933,0.02791304,-0.00153636,-0.00090270,0.00047742,-0.
 00109263,0.00088313,0.00425730,-0.00083061,-0.04889592,0.00120856,-0.0
 0013722,0.00143247,-0.00049111,0.00045197,0.00008073,0.00001910,-0.000
 09822,0.00006410,-0.02786349,0.00239621,0.00142005,-0.00031035,0.00006
 482,0.00033813,0.00015392,-0.00034989,-0.00081457,-0.00001027,-0.00003
 538,-0.00011780,-0.00648411,-0.00186862,0.05148200,0.00026411,-0.00029
 379,0.00017492,0.00107488,-0.00119267,-0.00267934,-0.01225346,0.000359
 25,0.00044055,0.00023336,0.00092004,0.00081665,0.00016280,0.00019179,0
 .00096219,-0.30833369,0.00956647,-0.00489635,0.00082740,-0.00081189,-0
 .00022104,-0.00007293,0.00001883,-0.00004126,0.00038357,-0.00006567,-0
 .00007211,-0.01036425,0.00078488,-0.00013110,-0.00005145,-0.00004805,-
 0.00003489,-0.00826885,0.00041558,0.00024884,0.00067861,0.00015154,-0.
 00059167,0.33582411,0.00041808,-0.00033674,-0.00039614,-0.00042579,-0.
 00188495,-0.00316727,-0.01620689,-0.00066052,0.00025149,-0.00150272,0.
 00069693,0.00031435,0.00032086,0.00010245,0.00063502,0.01014524,-0.049
 12763,0.00095418,0.00042846,-0.00010555,-0.00035171,0.00004792,0.00022
 411,0.00022842,-0.00002087,-0.00017906,0.00012373,-0.01567247,0.000244
 23,-0.00101231,0.00017813,-0.00000111,-0.00003168,0.03296069,0.0000589
 7,0.00025297,0.00015154,0.00034765,0.00001115,-0.00994499,0.04982590,0
 .00027172,-0.00049534,-0.00004117,-0.00038629,-0.00258944,-0.00482933,
 -0.02791304,0.00153636,-0.00090270,-0.00047742,0.00109263,0.00088313,-
 0.00120856,0.00013722,0.00143247,-0.00425730,0.00083061,-0.04889592,0.
 00049111,-0.00045197,0.00008073,-0.00001910,0.00009822,0.00006410,0.00
 031035,-0.00006482,0.00033813,0.02786349,-0.00239621,0.00142005,0.0000
 1027,0.00003538,-0.00011780,-0.00015392,0.00034989,-0.00081457,0.00059
 167,-0.00001115,-0.00050788,0.00648411,0.00186862,0.05148200,-0.062859
 17,-0.03221963,0.04817715,0.00444316,0.00817557,-0.01457618,0.00067870
 ,-0.00020312,-0.00079100,0.00004140,0.00001983,0.00019778,-0.00073122,
 0.00045877,0.00026198,-0.00014227,0.00000655,-0.00002891,-0.00005831,-
 0.00006896,0.00006659,-0.00652254,-0.01748300,0.02815963,-0.00001048,-
 0.00004684,0.00003815,0.00007293,-0.00006127,0.00015652,-0.00181130,0.
 00022162,0.00049609,-0.00000060,-0.00006257,-0.00009494,0.00015029,-0.
 00016719,-0.00004652,-0.00003120,-0.00003639,0.00000562,0.06605570,-0.
 03206105,-0.12531940,0.11345416,-0.00770894,-0.01591882,0.02497246,-0.
 00116104,0.00049120,0.00037556,0.00003100,0.00004500,-0.00001127,-0.00
 009033,-0.00010353,0.00011308,0.00013057,-0.00002751,-0.00008970,0.000
 17427,0.00001816,-0.00011511,-0.00144340,-0.00329732,0.00395518,0.0001
 2826,-0.00021341,-0.00021141,-0.00006975,-0.00004644,-0.00015063,0.000
 25812,0.00071482,-0.00001736,0.00006465,0.00006490,0.00003975,-0.00012
 871,0.00036229,-0.00026292,0.00006180,0.00006168,0.00005830,0.03367902
 ,0.13605156,0.04783496,0.11356634,-0.22364434,-0.00138492,-0.00042765,
 0.00132988,0.00072173,0.00054594,-0.00028664,-0.00027114,-0.00003972,0
 .00005849,0.00066850,0.00083438,0.00006331,-0.00026094,0.00008447,0.00
 003368,-0.00008236,0.00008291,-0.00000824,0.00017533,-0.00135879,0.000
 72358,-0.00002666,-0.00006525,-0.00011179,0.00008711,-0.00017045,0.000
 15403,0.00044846,-0.00092842,0.00009796,0.00006571,0.00004084,-0.00013
 603,0.00003484,-0.00046807,0.00010034,-0.00011413,0.00002272,0.0000114
 3,-0.05497530,-0.12623999,0.24025956,-0.06285917,-0.03221963,-0.048177
 15,0.00444316,0.00817557,0.01457618,0.00067870,-0.00020312,0.00079100,
 0.00004140,0.00001983,-0.00019778,-0.00014227,0.00000655,0.00002891,-0
 .00073122,0.00045877,-0.00026198,-0.00005831,-0.00006896,-0.00006659,-
 0.00652254,-0.01748300,-0.02815963,0.00007293,-0.00006127,-0.00015652,
 -0.00001048,-0.00004684,-0.00003815,-0.00000060,-0.00006257,0.00009494
 ,-0.00181130,0.00022162,-0.00049609,-0.00003120,-0.00003639,-0.0000056
 2,0.00015029,-0.00016719,0.00004652,0.00129849,0.00534837,0.00728417,0
 .06605570,-0.03206105,-0.12531940,-0.11345416,-0.00770894,-0.01591882,
 -0.02497246,-0.00116104,0.00049120,-0.00037556,0.00003100,0.00004500,0
 .00001127,0.00013057,-0.00002751,0.00008970,-0.00009033,-0.00010353,-0
 .00011308,0.00017427,0.00001816,0.00011511,-0.00144340,-0.00329732,-0.
 00395518,-0.00006975,-0.00004644,0.00015063,0.00012826,-0.00021341,0.0
 0021141,0.00006465,0.00006490,-0.00003975,0.00025812,0.00071482,0.0000
 1736,0.00006180,0.00006168,-0.00005830,-0.00012871,0.00036229,0.000262
 92,0.00534837,0.01107152,0.01472971,0.03367902,0.13605156,-0.04783496,
 -0.11356634,-0.22364434,0.00138492,0.00042765,0.00132988,-0.00072173,-
 0.00054594,-0.00028664,0.00027114,0.00003972,0.00005849,0.00026094,-0.
 00008447,0.00003368,-0.00066850,-0.00083438,0.00006331,0.00008236,-0.0
 0008291,-0.00000824,-0.00017533,0.00135879,0.00072358,-0.00008711,0.00
 017045,0.00015403,0.00002666,0.00006525,-0.00011179,-0.00006571,-0.000
 04084,-0.00013603,-0.00044846,0.00092842,0.00009796,0.00011413,-0.0000
 2272,0.00001143,-0.00003484,0.00046807,0.00010034,-0.00728417,-0.01472
 971,-0.02117659,0.05497530,0.12623999,0.24025956,0.00389367,0.00959363
 ,0.01379381,-0.06933136,-0.03851713,-0.05749571,-0.01260162,-0.0165666
 3,-0.02796752,0.00098151,-0.00160640,-0.00108616,0.00125897,0.00000371
 ,-0.00153308,-0.00686746,0.00094029,0.00166602,0.00039030,-0.00007445,
 0.00039841,0.00063947,-0.00060273,0.00040938,-0.00002521,0.00003848,0.
 00103228,0.00016958,0.00029392,0.00009628,-0.00006703,0.00001705,0.000
 10622,0.00015650,-0.00015585,0.00017865,0.00030143,0.00037734,0.000115
 10,-0.00091449,-0.00123030,-0.00187139,0.00041049,-0.00069682,-0.00045
 532,-0.00104278,0.00356405,-0.00025137,0.08011996,-0.00743002,-0.01796
 651,-0.02549782,-0.03852514,-0.11586468,-0.10324483,-0.00144696,-0.002
 57142,-0.00274714,0.00109057,0.00046618,0.00080991,0.00016589,-0.00027
 173,-0.00078835,-0.00029651,0.00054437,0.00089306,-0.00012000,-0.00001
 602,0.00021295,0.00004334,0.00127288,0.00019887,-0.00027506,0.00010984
 ,0.00061848,0.00004618,-0.00000318,-0.00025022,-0.00003331,0.00002438,
 -0.00001119,0.00021036,0.00014588,0.00006456,0.00012285,0.00012286,0.0
 0026661,-0.00006789,0.00020557,-0.00027961,-0.00088122,0.00098667,0.00
 034849,0.00350082,-0.00514312,0.00046519,0.03795564,0.12800225,0.00048
 414,0.00065373,0.00093462,-0.05811348,-0.10295187,-0.21258870,0.000222
 98,0.00004760,-0.00181978,0.00050431,-0.00030716,-0.00011254,0.0005686
 2,0.00046563,0.00067434,-0.00063606,0.00047492,0.00101641,0.00007653,0
 .00034015,0.00030606,0.00058030,-0.00029715,0.00007704,-0.00013706,-0.
 00017745,0.00053052,0.00020076,0.00002267,0.00048015,0.00007114,0.0000
 8438,-0.00000854,0.00001852,-0.00003937,-0.00001221,-0.00010885,0.0000
 7225,0.00021088,-0.00031055,-0.00030865,0.00010902,0.00031210,-0.00038
 593,0.00082677,0.00014335,0.00057318,0.00166190,0.06438351,0.11504987,
 0.22934101,0.00389367,0.00959363,-0.01379381,-0.06933136,-0.03851713,0
 .05749571,-0.01260162,-0.01656663,0.02796752,0.00098151,-0.00160640,0.
 00108616,-0.00686746,0.00094029,-0.00166602,0.00125897,0.00000371,0.00
 153308,0.00039030,-0.00007445,-0.00039841,0.00063947,-0.00060273,-0.00
 040938,0.00016958,0.00029392,-0.00009628,-0.00002521,0.00003848,-0.001
 03228,0.00015650,-0.00015585,-0.00017865,-0.00006703,0.00001705,-0.000
 10622,-0.00091449,-0.00123030,0.00187139,0.00030143,0.00037734,-0.0001
 1510,-0.00104278,0.00356405,0.00025137,0.00041049,-0.00069682,0.000455
 32,0.00272725,0.00565787,-0.00787089,0.08011996,-0.00743002,-0.0179665
 1,0.02549782,-0.03852514,-0.11586468,0.10324483,-0.00144696,-0.0025714
 2,0.00274714,0.00109057,0.00046618,-0.00080991,-0.00029651,0.00054437,
 -0.00089306,0.00016589,-0.00027173,0.00078835,-0.00012000,-0.00001602,
 -0.00021295,0.00004334,0.00127288,-0.00019887,0.00004618,-0.00000318,0
 .00025022,-0.00027506,0.00010984,-0.00061848,0.00021036,0.00014588,-0.
 00006456,-0.00003331,0.00002438,0.00001119,-0.00006789,0.00020557,0.00
 027961,0.00012285,0.00012286,-0.00026661,0.00350082,-0.00514312,-0.000
 46519,-0.00088122,0.00098667,-0.00034849,0.00565787,0.00954305,-0.0137
 6674,0.03795564,0.12800225,-0.00048414,-0.00065373,0.00093462,0.058113
 48,0.10295187,-0.21258870,-0.00022298,-0.00004760,-0.00181978,-0.00050
 431,0.00030716,-0.00011254,0.00063606,-0.00047492,0.00101641,-0.000568
 62,-0.00046563,0.00067434,-0.00007653,-0.00034015,0.00030606,-0.000580
 30,0.00029715,0.00007704,-0.00020076,-0.00002267,0.00048015,0.00013706
 ,0.00017745,0.00053052,-0.00001852,0.00003937,-0.00001221,-0.00007114,
 -0.00008438,-0.00000854,0.00031055,0.00030865,0.00010902,0.00010885,-0
 .00007225,0.00021088,-0.00014335,-0.00057318,0.00166190,-0.00031210,0.
 00038593,0.00082677,0.00787089,0.01376674,-0.02199510,-0.06438351,-0.1
 1504987,0.22934101,0.00010486,-0.00014142,-0.00008178,0.00081747,0.000
 63377,0.00111316,0.00222798,0.00493740,0.00954644,-0.07695283,-0.04126
 644,-0.06834393,-0.00000578,-0.00043491,-0.00005869,-0.00074169,0.0015
 9653,-0.00000590,-0.00943998,-0.01611459,-0.02787899,0.00001824,-0.000
 02727,0.00001313,0.00029070,-0.00016210,0.00006259,-0.00008771,-0.0000
 1382,-0.00026838,-0.00012170,-0.00002552,0.00023680,0.00064863,0.00047
 578,0.00034959,-0.00006180,-0.00006171,-0.00017630,0.00045154,0.000241
 06,0.00015094,0.00001398,-0.00003907,0.00001798,0.00004475,-0.00004101
 ,0.00001939,-0.00015698,0.00030116,-0.00031981,-0.00004219,-0.00001857
 ,0.00006954,0.07950216,0.00006679,0.00008196,0.00036838,-0.00183511,0.
 00068504,-0.00070203,-0.01091640,-0.01472112,-0.02598382,-0.04085725,-
 0.10958041,-0.10124461,-0.00048928,0.00124770,-0.00170233,0.00308164,-
 0.00617996,0.00160263,-0.00012454,-0.00007066,0.00110035,0.00002510,0.
 00000951,0.00004090,0.00021627,-0.00022600,0.00119240,0.00022731,0.000
 20921,-0.00008840,0.00025100,0.00042282,0.00018169,-0.00059487,-0.0010
 8709,-0.00199932,-0.00004734,-0.00012878,0.00009353,0.00000796,0.00017
 170,0.00037852,-0.00000134,-0.00002681,-0.00001318,-0.00017902,0.00022
 859,0.00007907,0.00088911,0.00039028,0.00054894,0.00011923,0.00002245,
 0.00009902,0.04366052,0.11984897,0.00037101,0.00011496,0.00028082,-0.0
 0052737,0.00028908,-0.00015434,0.00038073,0.00038544,-0.00094236,-0.06
 816393,-0.10189852,-0.22044360,0.00018109,0.00071150,0.00066538,0.0007
 7721,-0.00068507,0.00101767,0.00027247,0.00136420,0.00090443,0.0000607
 7,-0.00006601,-0.00000023,-0.00013156,-0.00007965,0.00049476,-0.000086
 74,0.00023329,0.00041131,0.00011178,-0.00009726,0.00021719,-0.00029122
 ,-0.00022652,0.00011095,0.00007008,0.00000377,-0.00002327,-0.00003874,
 0.00021305,0.00000035,-0.00001817,0.00000793,-0.00001542,-0.00008693,0
 .00018921,0.00005810,0.00053859,0.00000497,0.00045324,-0.00007142,-0.0
 0011949,-0.00008509,0.07610328,0.11285170,0.23791159,0.00010486,-0.000
 14142,0.00008178,0.00081747,0.00063377,-0.00111316,0.00222798,0.004937
 40,-0.00954644,-0.07695283,-0.04126644,0.06834393,-0.00074169,0.001596
 53,0.00000590,-0.00000578,-0.00043491,0.00005869,-0.00943998,-0.016114
 59,0.02787900,0.00001824,-0.00002727,-0.00001313,-0.00008771,-0.000013
 82,0.00026838,0.00029070,-0.00016210,-0.00006259,0.00064863,0.00047578
 ,-0.00034959,-0.00012170,-0.00002552,-0.00023680,0.00045154,0.00024106
 ,-0.00015094,-0.00006180,-0.00006171,0.00017630,0.00004475,-0.00004101
 ,-0.00001939,0.00001398,-0.00003907,-0.00001798,-0.00004219,-0.0000185
 7,-0.00006954,-0.00015698,0.00030116,0.00031981,0.00349033,0.00650020,
 -0.00945092,0.07950216,0.00006679,0.00008196,-0.00036838,-0.00183511,0
 .00068504,0.00070203,-0.01091640,-0.01472112,0.02598382,-0.04085725,-0
 .10958041,0.10124461,0.00308164,-0.00617996,-0.00160263,-0.00048928,0.
 00124770,0.00170233,-0.00012454,-0.00007066,-0.00110035,0.00002510,0.0
 0000951,-0.00004090,0.00022731,0.00020921,0.00008840,0.00021627,-0.000
 22600,-0.00119240,-0.00059487,-0.00108709,0.00199932,0.00025100,0.0004
 2282,-0.00018169,0.00000796,0.00017170,-0.00037852,-0.00004734,-0.0001
 2878,-0.00009353,-0.00017902,0.00022859,-0.00007907,-0.00000134,-0.000
 02681,0.00001318,0.00011923,0.00002245,-0.00009902,0.00088911,0.000390
 28,-0.00054894,0.00650020,0.00870260,-0.01319657,0.04366052,0.11984897
 ,-0.00037101,-0.00011496,0.00028082,0.00052737,-0.00028908,-0.00015434
 ,-0.00038073,-0.00038544,-0.00094236,0.06816393,0.10189852,-0.22044360
 ,-0.00077721,0.00068507,0.00101767,-0.00018109,-0.00071150,0.00066538,
 -0.00027247,-0.00136420,0.00090443,-0.00006077,0.00006601,-0.00000023,
 0.00008674,-0.00023329,0.00041131,0.00013156,0.00007965,0.00049476,0.0
 0029122,0.00022652,0.00011095,-0.00011178,0.00009726,0.00021719,0.0000
 3874,-0.00021305,0.00000035,-0.00007008,-0.00000377,-0.00002327,0.0000
 8693,-0.00018921,0.00005810,0.00001817,-0.00000793,-0.00001542,0.00007
 142,0.00011949,-0.00008509,-0.00053859,-0.00000497,0.00045324,0.009450
 92,0.01319657,-0.02086148,-0.07610328,-0.11285170,0.23791159\\-0.00003
 342,0.00002855,0.,0.00000345,-0.00004062,0.,0.00003224,-0.00001381,0.,
 0.00000711,-0.00005471,0.,-0.00000120,0.00004010,-0.00003760,-0.000001
 20,0.00004010,0.00003760,0.00000029,0.00000374,0.,-0.00000481,-0.00001
 460,0.,0.,0.00000400,0.00000212,0.,0.00000400,-0.00000212,-0.00000710,
 0.00000757,-0.00000596,-0.00000710,0.00000757,0.00000596,-0.00001432,0
 .00000644,0.00000471,-0.00001432,0.00000644,-0.00000471,-0.00000131,-0
 .00001502,0.00000168,-0.00000131,-0.00001502,-0.00000168,0.00000509,0.
 00000873,-0.00000205,0.00000509,0.00000873,0.00000205,0.00001640,-0.00
 000609,0.00000313,0.00001640,-0.00000609,-0.00000313\\\@


 Standing in the middle of the road is very dangerous;
 you get knocked down by the traffic from both sides.
                                -- Margaret Thatcher
 Job cpu time:  0 days  0 hours  2 minutes 23.5 seconds.
 File lengths (MBytes):  RWF=     28 Int=      0 D2E=      0 Chk=      2 Scr=      1
 Normal termination of Gaussian 09 at Tue Jan 23 15:09:16 2018.
