 Entering Gaussian System, Link 0=g09
 Input=hexane.inp
 Output=hexane.log
 Initial command:
 /usr/local/g09/l1.exe /home/g09scr/Gau-26746.inp -scrdir=/home/g09scr/
 Entering Link 1 = /usr/local/g09/l1.exe PID=     26748.
  
 Copyright (c) 1988,1990,1992,1993,1995,1998,2003,2009,2010,
            Gaussian, Inc.  All Rights Reserved.
  
 This is part of the Gaussian(R) 09 program.  It is based on
 the Gaussian(R) 03 system (copyright 2003, Gaussian, Inc.),
 the Gaussian(R) 98 system (copyright 1998, Gaussian, Inc.),
 the Gaussian(R) 94 system (copyright 1995, Gaussian, Inc.),
 the Gaussian 92(TM) system (copyright 1992, Gaussian, Inc.),
 the Gaussian 90(TM) system (copyright 1990, Gaussian, Inc.),
 the Gaussian 88(TM) system (copyright 1988, Gaussian, Inc.),
 the Gaussian 86(TM) system (copyright 1986, Carnegie Mellon
 University), and the Gaussian 82(TM) system (copyright 1983,
 Carnegie Mellon University). Gaussian is a federally registered
 trademark of Gaussian, Inc.
  
 This software contains proprietary and confidential information,
 including trade secrets, belonging to Gaussian, Inc.
  
 This software is provided under written license and may be
 used, copied, transmitted, or stored only in accord with that
 written license.
  
 The following legend is applicable only to US Government
 contracts under FAR:
  
                    RESTRICTED RIGHTS LEGEND
  
 Use, reproduction and disclosure by the US Government is
 subject to restrictions as set forth in subparagraphs (a)
 and (c) of the Commercial Computer Software - Restricted
 Rights clause in FAR 52.227-19.
  
 Gaussian, Inc.
 340 Quinnipiac St., Bldg. 40, Wallingford CT 06492
  
  
 ---------------------------------------------------------------
 Warning -- This program may not be used in any manner that
 competes with the business of Gaussian, Inc. or will provide
 assistance to any competitor of Gaussian, Inc.  The licensee
 of this program is prohibited from giving any competitor of
 Gaussian, Inc. access to this program.  By using this program,
 the user acknowledges that Gaussian, Inc. is engaged in the
 business of creating and licensing software in the field of
 computational chemistry and represents and warrants to the
 licensee that it is not a competitor of Gaussian, Inc. and that
 it will not use this program in any manner prohibited above.
 ---------------------------------------------------------------
  

 Cite this work as:
 Gaussian 09, Revision B.01,
 M. J. Frisch, G. W. Trucks, H. B. Schlegel, G. E. Scuseria, 
 M. A. Robb, J. R. Cheeseman, G. Scalmani, V. Barone, B. Mennucci, 
 G. A. Petersson, H. Nakatsuji, M. Caricato, X. Li, H. P. Hratchian, 
 A. F. Izmaylov, J. Bloino, G. Zheng, J. L. Sonnenberg, M. Hada, 
 M. Ehara, K. Toyota, R. Fukuda, J. Hasegawa, M. Ishida, T. Nakajima, 
 Y. Honda, O. Kitao, H. Nakai, T. Vreven, J. A. Montgomery, Jr., 
 J. E. Peralta, F. Ogliaro, M. Bearpark, J. J. Heyd, E. Brothers, 
 K. N. Kudin, V. N. Staroverov, T. Keith, R. Kobayashi, J. Normand, 
 K. Raghavachari, A. Rendell, J. C. Burant, S. S. Iyengar, J. Tomasi, 
 M. Cossi, N. Rega, J. M. Millam, M. Klene, J. E. Knox, J. B. Cross, 
 V. Bakken, C. Adamo, J. Jaramillo, R. Gomperts, R. E. Stratmann, 
 O. Yazyev, A. J. Austin, R. Cammi, C. Pomelli, J. W. Ochterski, 
 R. L. Martin, K. Morokuma, V. G. Zakrzewski, G. A. Voth, 
 P. Salvador, J. J. Dannenberg, S. Dapprich, A. D. Daniels, 
 O. Farkas, J. B. Foresman, J. V. Ortiz, J. Cioslowski, 
 and D. J. Fox, Gaussian, Inc., Wallingford CT, 2010.
 
 ******************************************
 Gaussian 09:  EM64L-G09RevB.01 12-Aug-2010
                23-Jan-2018 
 ******************************************
 %nproc=4
 Will use up to    4 processors via shared memory.
 %mem=60gb
 ----------------------------
 #B3LYP/6-31G* fopt test freq
 ----------------------------
 1/14=-1,18=20,19=15,26=3,38=1/1,3;
 2/9=110,12=2,14=103,17=6,18=5,40=1/2;
 3/5=1,6=6,7=1,11=2,16=1,25=1,30=1,71=1,74=-5/1,2,3;
 4//1;
 5/5=2,38=5/2;
 6/7=2,8=2,9=2,10=2,28=1/1;
 7//1,2,3,16;
 1/14=-1,18=20,19=15/3(2);
 2/9=110/2;
 99//99;
 2/9=110/2;
 3/5=1,6=6,7=1,11=2,16=1,25=1,30=1,71=1,74=-5/1,2,3;
 4/5=5,16=3/1;
 5/5=2,38=5/2;
 7//1,2,3,16;
 1/14=-1,18=20,19=15/3(-5);
 2/9=110/2;
 6/7=2,8=2,9=2,10=2,19=2,28=1/1;
 99/9=1/99;
 ----------------------
 IsomerC6H14/hexane.xyz
 ----------------------
 Symbolic Z-matrix:
 Charge =  0 Multiplicity = 1
 6                     1.41989   2.88863   0. 
 6                    -1.41989  -2.88863   0. 
 6                     0.00818   0.76537   0. 
 6                    -0.00818  -0.76537   0. 
 6                    -1.41989  -1.3582    0. 
 6                     1.41989   1.3582    0. 
 1                    -2.44478  -3.29545   0. 
 1                     2.44478   3.29545   0. 
 1                     0.90004   3.28131   0.89086 
 1                     0.90004   3.28131  -0.89086 
 1                    -0.90004  -3.28131  -0.89086 
 1                    -0.90004  -3.28131   0.89086 
 1                     1.96943   0.98593  -0.88503 
 1                     1.96943   0.98593   0.88503 
 1                    -1.96943  -0.98593  -0.88503 
 1                    -1.96943  -0.98593   0.88503 
 1                    -0.54312   1.13701   0.88595 
 1                    -0.54312   1.13701  -0.88595 
 1                     0.54312  -1.13701  -0.88595 
 1                     0.54312  -1.13701   0.88595 
 

 GradGradGradGradGradGradGradGradGradGradGradGradGradGradGradGradGradGrad
 Berny optimization.
 Initialization pass.
                           ----------------------------
                           !    Initial Parameters    !
                           ! (Angstroms and Degrees)  !
 --------------------------                            --------------------------
 ! Name  Definition              Value          Derivative Info.                !
 --------------------------------------------------------------------------------
 ! R1    R(1,6)                  1.5304         estimate D2E/DX2                !
 ! R2    R(1,8)                  1.1027         estimate D2E/DX2                !
 ! R3    R(1,9)                  1.1037         estimate D2E/DX2                !
 ! R4    R(1,10)                 1.1037         estimate D2E/DX2                !
 ! R5    R(2,5)                  1.5304         estimate D2E/DX2                !
 ! R6    R(2,7)                  1.1027         estimate D2E/DX2                !
 ! R7    R(2,11)                 1.1037         estimate D2E/DX2                !
 ! R8    R(2,12)                 1.1037         estimate D2E/DX2                !
 ! R9    R(3,4)                  1.5308         estimate D2E/DX2                !
 ! R10   R(3,6)                  1.5311         estimate D2E/DX2                !
 ! R11   R(3,17)                 1.1077         estimate D2E/DX2                !
 ! R12   R(3,18)                 1.1077         estimate D2E/DX2                !
 ! R13   R(4,5)                  1.5311         estimate D2E/DX2                !
 ! R14   R(4,19)                 1.1077         estimate D2E/DX2                !
 ! R15   R(4,20)                 1.1077         estimate D2E/DX2                !
 ! R16   R(5,15)                 1.1063         estimate D2E/DX2                !
 ! R17   R(5,16)                 1.1063         estimate D2E/DX2                !
 ! R18   R(6,13)                 1.1063         estimate D2E/DX2                !
 ! R19   R(6,14)                 1.1063         estimate D2E/DX2                !
 ! A1    A(6,1,8)              111.6499         estimate D2E/DX2                !
 ! A2    A(6,1,9)              110.8424         estimate D2E/DX2                !
 ! A3    A(6,1,10)             110.8424         estimate D2E/DX2                !
 ! A4    A(8,1,9)              107.8502         estimate D2E/DX2                !
 ! A5    A(8,1,10)             107.8502         estimate D2E/DX2                !
 ! A6    A(9,1,10)             107.6433         estimate D2E/DX2                !
 ! A7    A(5,2,7)              111.6499         estimate D2E/DX2                !
 ! A8    A(5,2,11)             110.8424         estimate D2E/DX2                !
 ! A9    A(5,2,12)             110.8424         estimate D2E/DX2                !
 ! A10   A(7,2,11)             107.8502         estimate D2E/DX2                !
 ! A11   A(7,2,12)             107.8502         estimate D2E/DX2                !
 ! A12   A(11,2,12)            107.6433         estimate D2E/DX2                !
 ! A13   A(4,3,6)              113.3913         estimate D2E/DX2                !
 ! A14   A(4,3,17)             109.2795         estimate D2E/DX2                !
 ! A15   A(4,3,18)             109.2795         estimate D2E/DX2                !
 ! A16   A(6,3,17)             109.207          estimate D2E/DX2                !
 ! A17   A(6,3,18)             109.207          estimate D2E/DX2                !
 ! A18   A(17,3,18)            106.2269         estimate D2E/DX2                !
 ! A19   A(3,4,5)              113.3913         estimate D2E/DX2                !
 ! A20   A(3,4,19)             109.2795         estimate D2E/DX2                !
 ! A21   A(3,4,20)             109.2795         estimate D2E/DX2                !
 ! A22   A(5,4,19)             109.207          estimate D2E/DX2                !
 ! A23   A(5,4,20)             109.207          estimate D2E/DX2                !
 ! A24   A(19,4,20)            106.2269         estimate D2E/DX2                !
 ! A25   A(2,5,4)              112.7792         estimate D2E/DX2                !
 ! A26   A(2,5,15)             109.664          estimate D2E/DX2                !
 ! A27   A(2,5,16)             109.664          estimate D2E/DX2                !
 ! A28   A(4,5,15)             109.1304         estimate D2E/DX2                !
 ! A29   A(4,5,16)             109.1304         estimate D2E/DX2                !
 ! A30   A(15,5,16)            106.2607         estimate D2E/DX2                !
 ! A31   A(1,6,3)              112.7792         estimate D2E/DX2                !
 ! A32   A(1,6,13)             109.664          estimate D2E/DX2                !
 ! A33   A(1,6,14)             109.664          estimate D2E/DX2                !
 ! A34   A(3,6,13)             109.1304         estimate D2E/DX2                !
 ! A35   A(3,6,14)             109.1304         estimate D2E/DX2                !
 ! A36   A(13,6,14)            106.2607         estimate D2E/DX2                !
 ! D1    D(8,1,6,3)            180.0            estimate D2E/DX2                !
 ! D2    D(8,1,6,13)           -58.1623         estimate D2E/DX2                !
 ! D3    D(8,1,6,14)            58.1623         estimate D2E/DX2                !
 ! D4    D(9,1,6,3)             59.7348         estimate D2E/DX2                !
 ! D5    D(9,1,6,13)          -178.4275         estimate D2E/DX2                !
 ! D6    D(9,1,6,14)           -62.1029         estimate D2E/DX2                !
 ! D7    D(10,1,6,3)           -59.7348         estimate D2E/DX2                !
 ! D8    D(10,1,6,13)           62.1029         estimate D2E/DX2                !
 ! D9    D(10,1,6,14)          178.4275         estimate D2E/DX2                !
 ! D10   D(7,2,5,4)            180.0            estimate D2E/DX2                !
 ! D11   D(7,2,5,15)           -58.1623         estimate D2E/DX2                !
 ! D12   D(7,2,5,16)            58.1623         estimate D2E/DX2                !
 ! D13   D(11,2,5,4)           -59.7348         estimate D2E/DX2                !
 ! D14   D(11,2,5,15)           62.1029         estimate D2E/DX2                !
 ! D15   D(11,2,5,16)          178.4275         estimate D2E/DX2                !
 ! D16   D(12,2,5,4)            59.7348         estimate D2E/DX2                !
 ! D17   D(12,2,5,15)         -178.4275         estimate D2E/DX2                !
 ! D18   D(12,2,5,16)          -62.1029         estimate D2E/DX2                !
 ! D19   D(6,3,4,5)            180.0            estimate D2E/DX2                !
 ! D20   D(6,3,4,19)           -57.9241         estimate D2E/DX2                !
 ! D21   D(6,3,4,20)            57.9241         estimate D2E/DX2                !
 ! D22   D(17,3,4,5)            57.9241         estimate D2E/DX2                !
 ! D23   D(17,3,4,19)          180.0            estimate D2E/DX2                !
 ! D24   D(17,3,4,20)          -64.1518         estimate D2E/DX2                !
 ! D25   D(18,3,4,5)           -57.9241         estimate D2E/DX2                !
 ! D26   D(18,3,4,19)           64.1518         estimate D2E/DX2                !
 ! D27   D(18,3,4,20)          180.0            estimate D2E/DX2                !
 ! D28   D(4,3,6,1)            180.0            estimate D2E/DX2                !
 ! D29   D(4,3,6,13)            57.8615         estimate D2E/DX2                !
 ! D30   D(4,3,6,14)           -57.8615         estimate D2E/DX2                !
 ! D31   D(17,3,6,1)           -57.8838         estimate D2E/DX2                !
 ! D32   D(17,3,6,13)          179.9777         estimate D2E/DX2                !
 ! D33   D(17,3,6,14)           64.2547         estimate D2E/DX2                !
 ! D34   D(18,3,6,1)            57.8838         estimate D2E/DX2                !
 ! D35   D(18,3,6,13)          -64.2547         estimate D2E/DX2                !
 ! D36   D(18,3,6,14)         -179.9777         estimate D2E/DX2                !
 ! D37   D(3,4,5,2)            180.0            estimate D2E/DX2                !
 ! D38   D(3,4,5,15)            57.8615         estimate D2E/DX2                !
 ! D39   D(3,4,5,16)           -57.8615         estimate D2E/DX2                !
 ! D40   D(19,4,5,2)            57.8838         estimate D2E/DX2                !
 ! D41   D(19,4,5,15)          -64.2547         estimate D2E/DX2                !
 ! D42   D(19,4,5,16)         -179.9777         estimate D2E/DX2                !
 ! D43   D(20,4,5,2)           -57.8838         estimate D2E/DX2                !
 ! D44   D(20,4,5,15)          179.9777         estimate D2E/DX2                !
 ! D45   D(20,4,5,16)           64.2547         estimate D2E/DX2                !
 --------------------------------------------------------------------------------
 Trust Radius=3.00D-01 FncErr=1.00D-07 GrdErr=1.00D-06
 Number of steps in this run=    110 maximum allowed number of steps=    120.
 GradGradGradGradGradGradGradGradGradGradGradGradGradGradGradGradGradGrad

                          Input orientation:                          
 ---------------------------------------------------------------------
 Center     Atomic      Atomic             Coordinates (Angstroms)
 Number     Number       Type             X           Y           Z
 ---------------------------------------------------------------------
      1          6           0        1.419885    2.888634    0.000000
      2          6           0       -1.419885   -2.888634    0.000000
      3          6           0        0.008177    0.765371    0.000000
      4          6           0       -0.008177   -0.765371    0.000000
      5          6           0       -1.419885   -1.358196    0.000000
      6          6           0        1.419885    1.358196    0.000000
      7          1           0       -2.444785   -3.295453    0.000000
      8          1           0        2.444785    3.295453    0.000000
      9          1           0        0.900036    3.281314    0.890856
     10          1           0        0.900036    3.281314   -0.890856
     11          1           0       -0.900036   -3.281314   -0.890856
     12          1           0       -0.900036   -3.281314    0.890856
     13          1           0        1.969434    0.985927   -0.885032
     14          1           0        1.969434    0.985927    0.885032
     15          1           0       -1.969434   -0.985927   -0.885032
     16          1           0       -1.969434   -0.985927    0.885032
     17          1           0       -0.543120    1.137011    0.885950
     18          1           0       -0.543120    1.137011   -0.885950
     19          1           0        0.543120   -1.137011   -0.885950
     20          1           0        0.543120   -1.137011    0.885950
 ---------------------------------------------------------------------
                    Distance matrix (angstroms):
                    1          2          3          4          5
     1  C    0.000000
     2  C    6.437478   0.000000
     3  C    2.549738   3.923151   0.000000
     4  C    3.923151   2.549738   1.530829   0.000000
     5  C    5.108802   1.530438   2.559081   1.531131   0.000000
     6  C    1.530438   5.108802   1.531131   2.559081   3.929768
     7  H    7.292366   1.102688   4.744187   3.512602   2.191663
     8  H    1.102688   7.292366   3.512602   4.744187   6.049142
     9  H    1.103660   6.651610   2.814073   4.241949   5.263146
    10  H    1.103660   6.651610   2.814073   4.241949   5.263146
    11  H    6.651610   1.103660   4.241949   2.814073   2.182258
    12  H    6.651610   1.103660   4.241949   2.814073   2.182258
    13  H    2.169235   5.223312   2.162974   2.785906   4.214935
    14  H    2.169235   5.223312   2.162974   2.785906   4.214935
    15  H    5.223312   2.169235   2.785906   2.162974   1.106287
    16  H    5.223312   2.169235   2.785906   2.162974   1.106287
    17  H    2.776055   4.214195   1.107679   2.165670   2.789208
    18  H    2.776055   4.214195   1.107679   2.165670   2.789208
    19  H    4.214195   2.776055   2.165670   1.107679   2.164999
    20  H    4.214195   2.776055   2.165670   1.107679   2.164999
                    6          7          8          9         10
     6  C    0.000000
     7  H    6.049142   0.000000
     8  H    2.191663   8.206579   0.000000
     9  H    2.182258   7.432047   1.783276   0.000000
    10  H    2.182258   7.432047   1.783276   1.781712   0.000000
    11  H    5.263146   1.783276   7.432047   7.034404   6.805024
    12  H    5.263146   1.783276   7.432047   6.805024   7.034404
    13  H    1.106287   6.212795   2.518561   3.092926   2.532281
    14  H    1.106287   6.212795   2.518561   2.532281   3.092926
    15  H    4.214935   2.518561   6.212795   5.440311   5.142299
    16  H    4.214935   2.518561   6.212795   5.142299   5.440311
    17  H    2.164999   4.903873   3.790957   2.584716   3.136523
    18  H    2.164999   4.903873   3.790957   3.136523   2.584716
    19  H    2.789208   3.790957   4.903873   4.775565   4.432720
    20  H    2.789208   3.790957   4.903873   4.432720   4.775565
                   11         12         13         14         15
    11  H    0.000000
    12  H    1.781712   0.000000
    13  H    5.142299   5.440311   0.000000
    14  H    5.440311   5.142299   1.770064   0.000000
    15  H    2.532281   3.092926   4.404871   4.747211   0.000000
    16  H    3.092926   2.532281   4.747211   4.404871   1.770064
    17  H    4.775565   4.432720   3.077683   2.517093   3.110886
    18  H    4.432720   4.775565   2.517093   3.077683   2.557584
    19  H    2.584716   3.136523   2.557584   3.110886   2.517093
    20  H    3.136523   2.584716   3.110886   2.557584   3.077683
                   16         17         18         19         20
    16  H    0.000000
    17  H    2.557584   0.000000
    18  H    3.110886   1.771900   0.000000
    19  H    3.077683   3.080702   2.520138   0.000000
    20  H    2.517093   2.520138   3.080702   1.771900   0.000000
 Stoichiometry    C6H14
 Framework group  C2H[SGH(C6H2),X(H12)]
 Deg. of freedom    16
 Full point group                 C2H     NOp   4
 Largest Abelian subgroup         C2H     NOp   4
 Largest concise Abelian subgroup C2H     NOp   4
                         Standard orientation:                         
 ---------------------------------------------------------------------
 Center     Atomic      Atomic             Coordinates (Angstroms)
 Number     Number       Type             X           Y           Z
 ---------------------------------------------------------------------
      1          6           0        1.419885    2.888634    0.000000
      2          6           0       -1.419885   -2.888634    0.000000
      3          6           0        0.008177    0.765371    0.000000
      4          6           0       -0.008177   -0.765371    0.000000
      5          6           0       -1.419885   -1.358196    0.000000
      6          6           0        1.419885    1.358196    0.000000
      7          1           0       -2.444785   -3.295453    0.000000
      8          1           0        2.444785    3.295453    0.000000
      9          1           0        0.900036    3.281314    0.890856
     10          1           0        0.900036    3.281314   -0.890856
     11          1           0       -0.900036   -3.281314   -0.890856
     12          1           0       -0.900036   -3.281314    0.890856
     13          1           0        1.969434    0.985927   -0.885032
     14          1           0        1.969434    0.985927    0.885032
     15          1           0       -1.969434   -0.985927   -0.885032
     16          1           0       -1.969434   -0.985927    0.885032
     17          1           0       -0.543120    1.137011    0.885950
     18          1           0       -0.543120    1.137011   -0.885950
     19          1           0        0.543120   -1.137011   -0.885950
     20          1           0        0.543120   -1.137011    0.885950
 ---------------------------------------------------------------------
 Rotational constants (GHZ):     14.4398534      1.1332055      1.0940609
 Standard basis: 6-31G(d) (6D, 7F)
 There are    41 symmetry adapted basis functions of AG  symmetry.
 There are    18 symmetry adapted basis functions of BG  symmetry.
 There are    18 symmetry adapted basis functions of AU  symmetry.
 There are    41 symmetry adapted basis functions of BU  symmetry.
 Integral buffers will be    131072 words long.
 Raffenetti 2 integral format.
 Two-electron integral symmetry is turned on.
   118 basis functions,   224 primitive gaussians,   118 cartesian basis functions
    25 alpha electrons       25 beta electrons
       nuclear repulsion energy       243.2612203293 Hartrees.
 NAtoms=   20 NActive=   20 NUniq=    7 SFac= 4.00D+00 NAtFMM=   50 NAOKFM=F Big=F
 One-electron integrals computed using PRISM.
 NBasis=   118 RedAO= T  NBF=    41    18    18    41
 NBsUse=   118 1.00D-06 NBFU=    41    18    18    41
 Harris functional with IExCor=  402 diagonalized for initial guess.
 ExpMin= 1.61D-01 ExpMax= 3.05D+03 ExpMxC= 4.57D+02 IAcc=1 IRadAn=         1 AccDes= 0.00D+00
 HarFok:  IExCor=  402 AccDes= 0.00D+00 IRadAn=         1 IDoV= 1
 ScaDFX=  1.000000  1.000000  1.000000  1.000000
 FoFCou: FMM=F IPFlag=           0 FMFlag=      100000 FMFlg1=           0
         NFxFlg=           0 DoJE=T BraDBF=F KetDBF=T FulRan=T
         Omega=  0.000000  0.000000  1.000000  0.000000  0.000000 ICntrl=     500 IOpCl=  0
         NMat0=    1 NMatS0=    1 NMatT0=    0 NMatD0=    1 NMtDS0=    0 NMtDT0=    0
         I1Cent=           4 NGrid=           0.
 Petite list used in FoFCou.
 Initial guess orbital symmetries:
       Occupied  (BU) (AG) (AG) (BU) (AG) (BU) (AG) (BU) (AG) (BU)
                 (AG) (BU) (AU) (AG) (BG) (BU) (AU) (BU) (AG) (BG)
                 (BU) (AG) (AG) (AU) (BG)
       Virtual   (AG) (BU) (AU) (BU) (AG) (BG) (BU) (AG) (BU) (AG)
                 (AU) (BU) (AU) (BG) (BG) (BU) (AG) (AG) (BU) (AG)
                 (BU) (AG) (BG) (AU) (BU) (AU) (AG) (BU) (BG) (AG)
                 (BU) (AG) (AU) (BU) (BG) (BU) (AU) (AG) (BG) (AG)
                 (BU) (AU) (BU) (BG) (BU) (AG) (AG) (AU) (BU) (AG)
                 (AG) (BG) (BU) (AU) (BU) (AG) (BU) (AG) (AG) (BU)
                 (BG) (AG) (AU) (AG) (BU) (AG) (BU) (BG) (BU) (AU)
                 (AG) (BU) (BG) (BG) (AG) (AU) (BU) (AU) (BG) (AU)
                 (BG) (AG) (AG) (BU) (BU) (AG) (BU) (AG) (BU) (AG)
                 (BU) (AG) (BU)
 The electronic state of the initial guess is 1-AG.
 Requested convergence on RMS density matrix=1.00D-08 within 128 cycles.
 Requested convergence on MAX density matrix=1.00D-06.
 Requested convergence on             energy=1.00D-06.
 No special actions if energy rises.
 Keep R1 ints in memory in canonical form, NReq=25820103.
 Integral accuracy reduced to 1.0D-05 until final iterations.
 Initial convergence to 1.0D-05 achieved.  Increase integral accuracy.
 SCF Done:  E(RB3LYP) =  -237.085031478     A.U. after   12 cycles
             Convg  =    0.1882D-08             -V/T =  2.0109

 **********************************************************************

            Population analysis using the SCF density.

 **********************************************************************

 Orbital symmetries:
       Occupied  (BU) (AG) (AG) (BU) (BU) (AG) (AG) (BU) (AG) (BU)
                 (AG) (BU) (AU) (BG) (AG) (BU) (AU) (BU) (AG) (BG)
                 (BU) (AU) (AG) (BG) (AG)
       Virtual   (AG) (BU) (AU) (BU) (AG) (BG) (AG) (BU) (BU) (AU)
                 (AG) (BG) (AU) (BG) (BU) (AG) (BU) (AG) (BU) (AG)
                 (BU) (AG) (BG) (AU) (AU) (BU) (AG) (BU) (BG) (AG)
                 (BU) (AG) (AU) (BU) (BG) (BU) (AU) (AG) (BG) (AG)
                 (BU) (AU) (BG) (BU) (BU) (AU) (AG) (AG) (BU) (AG)
                 (AG) (BG) (BU) (AU) (AG) (BU) (BU) (AG) (AG) (BU)
                 (BG) (AG) (BU) (AU) (AG) (AG) (BG) (BU) (BU) (AU)
                 (AG) (BU) (BG) (BG) (AG) (AU) (BU) (AU) (BG) (AU)
                 (BG) (AG) (AG) (BU) (BU) (AG) (BU) (AG) (BU) (AG)
                 (BU) (AG) (BU)
 The electronic state is 1-AG.
 Alpha  occ. eigenvalues --  -10.17724 -10.17724 -10.17504 -10.17482 -10.17191
 Alpha  occ. eigenvalues --  -10.17191  -0.79959  -0.76126  -0.70196  -0.63177
 Alpha  occ. eigenvalues --   -0.57538  -0.56838  -0.47341  -0.44001  -0.42934
 Alpha  occ. eigenvalues --   -0.41489  -0.39379  -0.37558  -0.37252  -0.34972
 Alpha  occ. eigenvalues --   -0.33629  -0.32289  -0.32055  -0.31631  -0.30385
 Alpha virt. eigenvalues --    0.09142   0.10338   0.11963   0.12956   0.13581
 Alpha virt. eigenvalues --    0.15993   0.16651   0.16826   0.18572   0.19025
 Alpha virt. eigenvalues --    0.19256   0.19908   0.20403   0.20536   0.22976
 Alpha virt. eigenvalues --    0.24251   0.26637   0.28226   0.29422   0.49504
 Alpha virt. eigenvalues --    0.49752   0.51267   0.55365   0.56321   0.57965
 Alpha virt. eigenvalues --    0.58622   0.60626   0.63181   0.65508   0.69078
 Alpha virt. eigenvalues --    0.69388   0.72636   0.76994   0.79227   0.81668
 Alpha virt. eigenvalues --    0.81852   0.84382   0.87606   0.88170   0.89955
 Alpha virt. eigenvalues --    0.90178   0.92284   0.93358   0.93468   0.94998
 Alpha virt. eigenvalues --    0.95503   0.95875   0.96228   0.98576   1.00466
 Alpha virt. eigenvalues --    1.01957   1.15401   1.30014   1.40615   1.40918
 Alpha virt. eigenvalues --    1.45428   1.46071   1.52658   1.54801   1.64248
 Alpha virt. eigenvalues --    1.76125   1.82940   1.87255   1.87617   1.90134
 Alpha virt. eigenvalues --    1.93685   1.94626   1.95503   2.00337   2.02013
 Alpha virt. eigenvalues --    2.03267   2.07487   2.10557   2.22204   2.22338
 Alpha virt. eigenvalues --    2.24548   2.32002   2.32805   2.33081   2.41890
 Alpha virt. eigenvalues --    2.42274   2.45437   2.56297   2.60436   2.63279
 Alpha virt. eigenvalues --    2.77992   2.82896   4.11666   4.18650   4.28312
 Alpha virt. eigenvalues --    4.36332   4.44569   4.56300
          Condensed to atoms (all electrons):
              1          2          3          4          5          6
     1  C    5.068140   0.000001  -0.043273   0.003677  -0.000125   0.369514
     2  C    0.000001   5.068140   0.003677  -0.043273   0.369514  -0.000125
     3  C   -0.043273   0.003677   4.981134   0.381976  -0.036288   0.385044
     4  C    0.003677  -0.043273   0.381976   4.981134   0.385044  -0.036288
     5  C   -0.000125   0.369514  -0.036288   0.385044   4.957549   0.003528
     6  C    0.369514  -0.000125   0.385044  -0.036288   0.003528   4.957549
     7  H    0.000000   0.370226  -0.000133   0.004124  -0.027220   0.000001
     8  H    0.370226   0.000000   0.004124  -0.000133   0.000001  -0.027220
     9  H    0.376447   0.000000  -0.004660   0.000037   0.000001  -0.035234
    10  H    0.376447   0.000000  -0.004660   0.000037   0.000001  -0.035234
    11  H    0.000000   0.376447   0.000037  -0.004660  -0.035234   0.000001
    12  H    0.000000   0.376447   0.000037  -0.004660  -0.035234   0.000001
    13  H   -0.038420   0.000001  -0.040480  -0.003630   0.000027   0.375652
    14  H   -0.038420   0.000001  -0.040480  -0.003630   0.000027   0.375652
    15  H    0.000001  -0.038420  -0.003630  -0.040480   0.375652   0.000027
    16  H    0.000001  -0.038420  -0.003630  -0.040480   0.375652   0.000027
    17  H   -0.003010   0.000040   0.371532  -0.039572  -0.003635  -0.040729
    18  H   -0.003010   0.000040   0.371532  -0.039572  -0.003635  -0.040729
    19  H    0.000040  -0.003010  -0.039572   0.371532  -0.040729  -0.003635
    20  H    0.000040  -0.003010  -0.039572   0.371532  -0.040729  -0.003635
              7          8          9         10         11         12
     1  C    0.000000   0.370226   0.376447   0.376447   0.000000   0.000000
     2  C    0.370226   0.000000   0.000000   0.000000   0.376447   0.376447
     3  C   -0.000133   0.004124  -0.004660  -0.004660   0.000037   0.000037
     4  C    0.004124  -0.000133   0.000037   0.000037  -0.004660  -0.004660
     5  C   -0.027220   0.000001   0.000001   0.000001  -0.035234  -0.035234
     6  C    0.000001  -0.027220  -0.035234  -0.035234   0.000001   0.000001
     7  H    0.580381   0.000000   0.000000   0.000000  -0.030927  -0.030927
     8  H    0.000000   0.580381  -0.030927  -0.030927   0.000000   0.000000
     9  H    0.000000  -0.030927   0.581498  -0.032353   0.000000   0.000000
    10  H    0.000000  -0.030927  -0.032353   0.581498   0.000000   0.000000
    11  H   -0.030927   0.000000   0.000000   0.000000   0.581498  -0.032353
    12  H   -0.030927   0.000000   0.000000   0.000000  -0.032353   0.581498
    13  H    0.000000  -0.002658   0.005222  -0.004462  -0.000002   0.000001
    14  H    0.000000  -0.002658  -0.004462   0.005222   0.000001  -0.000002
    15  H   -0.002658   0.000000   0.000001  -0.000002  -0.004462   0.005222
    16  H   -0.002658   0.000000  -0.000002   0.000001   0.005222  -0.004462
    17  H    0.000002  -0.000030   0.005064  -0.000387   0.000006   0.000004
    18  H    0.000002  -0.000030  -0.000387   0.005064   0.000004   0.000006
    19  H   -0.000030   0.000002   0.000006   0.000004   0.005064  -0.000387
    20  H   -0.000030   0.000002   0.000004   0.000006  -0.000387   0.005064
             13         14         15         16         17         18
     1  C   -0.038420  -0.038420   0.000001   0.000001  -0.003010  -0.003010
     2  C    0.000001   0.000001  -0.038420  -0.038420   0.000040   0.000040
     3  C   -0.040480  -0.040480  -0.003630  -0.003630   0.371532   0.371532
     4  C   -0.003630  -0.003630  -0.040480  -0.040480  -0.039572  -0.039572
     5  C    0.000027   0.000027   0.375652   0.375652  -0.003635  -0.003635
     6  C    0.375652   0.375652   0.000027   0.000027  -0.040729  -0.040729
     7  H    0.000000   0.000000  -0.002658  -0.002658   0.000002   0.000002
     8  H   -0.002658  -0.002658   0.000000   0.000000  -0.000030  -0.000030
     9  H    0.005222  -0.004462   0.000001  -0.000002   0.005064  -0.000387
    10  H   -0.004462   0.005222  -0.000002   0.000001  -0.000387   0.005064
    11  H   -0.000002   0.000001  -0.004462   0.005222   0.000006   0.000004
    12  H    0.000001  -0.000002   0.005222  -0.004462   0.000004   0.000006
    13  H    0.614351  -0.039267   0.000006   0.000005   0.005937  -0.005437
    14  H   -0.039267   0.614351   0.000005   0.000006  -0.005437   0.005937
    15  H    0.000006   0.000005   0.614351  -0.039267  -0.000436   0.005198
    16  H    0.000005   0.000006  -0.039267   0.614351   0.005198  -0.000436
    17  H    0.005937  -0.005437  -0.000436   0.005198   0.620234  -0.039857
    18  H   -0.005437   0.005937   0.005198  -0.000436  -0.039857   0.620234
    19  H    0.005198  -0.000436  -0.005437   0.005937   0.005881  -0.005323
    20  H   -0.000436   0.005198   0.005937  -0.005437  -0.005323   0.005881
             19         20
     1  C    0.000040   0.000040
     2  C   -0.003010  -0.003010
     3  C   -0.039572  -0.039572
     4  C    0.371532   0.371532
     5  C   -0.040729  -0.040729
     6  C   -0.003635  -0.003635
     7  H   -0.000030  -0.000030
     8  H    0.000002   0.000002
     9  H    0.000006   0.000004
    10  H    0.000004   0.000006
    11  H    0.005064  -0.000387
    12  H   -0.000387   0.005064
    13  H    0.005198  -0.000436
    14  H   -0.000436   0.005198
    15  H   -0.005437   0.005937
    16  H    0.005937  -0.005437
    17  H    0.005881  -0.005323
    18  H   -0.005323   0.005881
    19  H    0.620234  -0.039857
    20  H   -0.039857   0.620234
 Mulliken atomic charges:
              1
     1  C   -0.438276
     2  C   -0.438276
     3  C   -0.242716
     4  C   -0.242716
     5  C   -0.244167
     6  C   -0.244167
     7  H    0.139845
     8  H    0.139845
     9  H    0.139746
    10  H    0.139746
    11  H    0.139746
    12  H    0.139746
    13  H    0.128392
    14  H    0.128392
    15  H    0.128392
    16  H    0.128392
    17  H    0.124519
    18  H    0.124519
    19  H    0.124519
    20  H    0.124519
 Sum of Mulliken atomic charges =   0.00000
 Mulliken charges with hydrogens summed into heavy atoms:
              1
     1  C   -0.018939
     2  C   -0.018939
     3  C    0.006322
     4  C    0.006322
     5  C    0.012617
     6  C    0.012617
 Sum of Mulliken charges with hydrogens summed into heavy atoms =   0.00000
 Electronic spatial extent (au):  <R**2>=           1138.9659
 Charge=              0.0000 electrons
 Dipole moment (field-independent basis, Debye):
    X=              0.0000    Y=              0.0000    Z=              0.0000  Tot=              0.0000
 Quadrupole moment (field-independent basis, Debye-Ang):
   XX=            -41.7198   YY=            -42.7334   ZZ=            -40.7974
   XY=             -0.1535   XZ=              0.0000   YZ=              0.0000
 Traceless Quadrupole moment (field-independent basis, Debye-Ang):
   XX=              0.0304   YY=             -0.9832   ZZ=              0.9528
   XY=             -0.1535   XZ=              0.0000   YZ=              0.0000
 Octapole moment (field-independent basis, Debye-Ang**2):
  XXX=              0.0000  YYY=              0.0000  ZZZ=              0.0000  XYY=              0.0000
  XXY=              0.0000  XXZ=              0.0000  XZZ=              0.0000  YZZ=              0.0000
  YYZ=              0.0000  XYZ=              0.0000
 Hexadecapole moment (field-independent basis, Debye-Ang**3):
 XXXX=           -436.5973 YYYY=          -1087.8457 ZZZZ=            -84.8649 XXXY=           -257.5527
 XXXZ=              0.0000 YYYX=           -270.9036 YYYZ=              0.0000 ZZZX=              0.0000
 ZZZY=              0.0000 XXYY=           -248.2166 XXZZ=            -87.2066 YYZZ=           -186.6433
 XXYZ=              0.0000 YYXZ=              0.0000 ZZXY=            -89.7898
 N-N= 2.432612203293D+02 E-N=-1.033367164672D+03  KE= 2.345281342249D+02
 Symmetry AG   KE= 1.129071844968D+02
 Symmetry BG   KE= 5.937662675749D+00
 Symmetry AU   KE= 5.761111125479D+00
 Symmetry BU   KE= 1.099221759269D+02
 Calling FoFJK, ICntrl=      2127 FMM=F ISym2X=1 I1Cent= 0 IOpClX= 0 NMat=1 NMatS=1 NMatT=0.
 ***** Axes restored to original set *****
 -------------------------------------------------------------------
 Center     Atomic                   Forces (Hartrees/Bohr)
 Number     Number              X              Y              Z
 -------------------------------------------------------------------
      1        6           0.000633040    0.003971066    0.000000000
      2        6          -0.000633040   -0.003971066    0.000000000
      3        6          -0.003546763    0.002204575    0.000000000
      4        6           0.003546763   -0.002204575    0.000000000
      5        6          -0.003821602    0.001866170    0.000000000
      6        6           0.003821602   -0.001866170    0.000000000
      7        1           0.004113632    0.001273599    0.000000000
      8        1          -0.004113632   -0.001273599    0.000000000
      9        1           0.002104567   -0.000873954   -0.003609434
     10        1           0.002104567   -0.000873954    0.003609434
     11        1          -0.002104567    0.000873954    0.003609434
     12        1          -0.002104567    0.000873954   -0.003609434
     13        1          -0.001670464    0.001480043    0.003714188
     14        1          -0.001670464    0.001480043   -0.003714188
     15        1           0.001670464   -0.001480043    0.003714188
     16        1           0.001670464   -0.001480043   -0.003714188
     17        1           0.001862920   -0.001247619   -0.003901400
     18        1           0.001862920   -0.001247619    0.003901400
     19        1          -0.001862920    0.001247619    0.003901400
     20        1          -0.001862920    0.001247619   -0.003901400
 -------------------------------------------------------------------
 Cartesian Forces:  Max     0.004113632 RMS     0.002481473

 GradGradGradGradGradGradGradGradGradGradGradGradGradGradGradGradGradGrad
 Berny optimization.
 Internal  Forces:  Max     0.004466231 RMS     0.001708040
 Search for a local minimum.
 Step number   1 out of a maximum of  110
 All quantities printed in internal units (Hartrees-Bohrs-Radians)
 Mixed Optimization -- RFO/linear search
 Second derivative matrix not updated -- first step.
 ITU=  0
     Eigenvalues ---    0.00354   0.00354   0.00358   0.00363   0.00363
     Eigenvalues ---    0.03446   0.03446   0.03503   0.03503   0.04805
     Eigenvalues ---    0.04805   0.04818   0.04818   0.05449   0.05449
     Eigenvalues ---    0.05552   0.05552   0.08366   0.08366   0.08465
     Eigenvalues ---    0.08465   0.12228   0.12228   0.12300   0.12300
     Eigenvalues ---    0.16000   0.16000   0.16000   0.16000   0.16000
     Eigenvalues ---    0.16000   0.21898   0.21898   0.21911   0.21911
     Eigenvalues ---    0.29319   0.29319   0.29347   0.29383   0.29383
     Eigenvalues ---    0.32847   0.32847   0.32847   0.32847   0.32996
     Eigenvalues ---    0.32996   0.32996   0.32996   0.33281   0.33281
     Eigenvalues ---    0.33281   0.33281   0.33387   0.33387
 RFO step:  Lambda=-9.65492552D-04 EMin= 3.54149091D-03
 Linear search not attempted -- first point.
 Iteration  1 RMS(Cart)=  0.01202345 RMS(Int)=  0.00002660
 Iteration  2 RMS(Cart)=  0.00003476 RMS(Int)=  0.00000791
 Iteration  3 RMS(Cart)=  0.00000000 RMS(Int)=  0.00000791
 ClnCor:  largest displacement from symmetrization is 2.13D-10 for atom    20.
 Variable       Old X    -DE/DX   Delta X   Delta X   Delta X     New X
                                 (Linear)    (Quad)   (Total)
    R1        2.89211   0.00095   0.00000   0.00322   0.00322   2.89533
    R2        2.08378  -0.00429   0.00000  -0.01282  -0.01282   2.07096
    R3        2.08561  -0.00422   0.00000  -0.01263  -0.01263   2.07298
    R4        2.08561  -0.00422   0.00000  -0.01263  -0.01263   2.07298
    R5        2.89211   0.00095   0.00000   0.00322   0.00322   2.89533
    R6        2.08378  -0.00429   0.00000  -0.01282  -0.01282   2.07096
    R7        2.08561  -0.00422   0.00000  -0.01263  -0.01263   2.07298
    R8        2.08561  -0.00422   0.00000  -0.01263  -0.01263   2.07298
    R9        2.89285   0.00177   0.00000   0.00600   0.00600   2.89885
   R10        2.89342   0.00191   0.00000   0.00648   0.00648   2.89990
   R11        2.09321  -0.00447   0.00000  -0.01356  -0.01356   2.07965
   R12        2.09321  -0.00447   0.00000  -0.01356  -0.01356   2.07965
   R13        2.89342   0.00191   0.00000   0.00648   0.00648   2.89990
   R14        2.09321  -0.00447   0.00000  -0.01356  -0.01356   2.07965
   R15        2.09321  -0.00447   0.00000  -0.01356  -0.01356   2.07965
   R16        2.09058  -0.00430   0.00000  -0.01299  -0.01299   2.07759
   R17        2.09058  -0.00430   0.00000  -0.01299  -0.01299   2.07759
   R18        2.09058  -0.00430   0.00000  -0.01299  -0.01299   2.07759
   R19        2.09058  -0.00430   0.00000  -0.01299  -0.01299   2.07759
    A1        1.94866   0.00014   0.00000   0.00053   0.00053   1.94918
    A2        1.93456   0.00075   0.00000   0.00485   0.00485   1.93941
    A3        1.93456   0.00075   0.00000   0.00485   0.00485   1.93941
    A4        1.88234  -0.00052   0.00000  -0.00358  -0.00358   1.87876
    A5        1.88234  -0.00052   0.00000  -0.00358  -0.00358   1.87876
    A6        1.87873  -0.00070   0.00000  -0.00365  -0.00367   1.87506
    A7        1.94866   0.00014   0.00000   0.00053   0.00053   1.94918
    A8        1.93456   0.00075   0.00000   0.00485   0.00485   1.93941
    A9        1.93456   0.00075   0.00000   0.00485   0.00485   1.93941
   A10        1.88234  -0.00052   0.00000  -0.00358  -0.00358   1.87876
   A11        1.88234  -0.00052   0.00000  -0.00358  -0.00358   1.87876
   A12        1.87873  -0.00070   0.00000  -0.00365  -0.00367   1.87506
   A13        1.97905   0.00125   0.00000   0.00752   0.00750   1.98656
   A14        1.90729  -0.00030   0.00000  -0.00036  -0.00037   1.90692
   A15        1.90729  -0.00030   0.00000  -0.00036  -0.00037   1.90692
   A16        1.90602  -0.00031   0.00000  -0.00046  -0.00047   1.90555
   A17        1.90602  -0.00031   0.00000  -0.00046  -0.00047   1.90555
   A18        1.85401  -0.00011   0.00000  -0.00683  -0.00683   1.84718
   A19        1.97905   0.00125   0.00000   0.00752   0.00750   1.98656
   A20        1.90729  -0.00030   0.00000  -0.00036  -0.00037   1.90692
   A21        1.90729  -0.00030   0.00000  -0.00036  -0.00037   1.90692
   A22        1.90602  -0.00031   0.00000  -0.00046  -0.00047   1.90555
   A23        1.90602  -0.00031   0.00000  -0.00046  -0.00047   1.90555
   A24        1.85401  -0.00011   0.00000  -0.00683  -0.00683   1.84718
   A25        1.96837   0.00158   0.00000   0.00903   0.00901   1.97738
   A26        1.91400  -0.00059   0.00000  -0.00300  -0.00302   1.91098
   A27        1.91400  -0.00059   0.00000  -0.00300  -0.00302   1.91098
   A28        1.90468  -0.00025   0.00000   0.00113   0.00113   1.90582
   A29        1.90468  -0.00025   0.00000   0.00113   0.00113   1.90582
   A30        1.85460   0.00000   0.00000  -0.00618  -0.00619   1.84841
   A31        1.96837   0.00158   0.00000   0.00903   0.00901   1.97738
   A32        1.91400  -0.00059   0.00000  -0.00300  -0.00302   1.91098
   A33        1.91400  -0.00059   0.00000  -0.00300  -0.00302   1.91098
   A34        1.90468  -0.00025   0.00000   0.00113   0.00113   1.90582
   A35        1.90468  -0.00025   0.00000   0.00113   0.00113   1.90582
   A36        1.85460   0.00000   0.00000  -0.00618  -0.00619   1.84841
    D1        3.14159   0.00000   0.00000   0.00000   0.00000   3.14159
    D2       -1.01512   0.00034   0.00000   0.00545   0.00545  -1.00968
    D3        1.01512  -0.00034   0.00000  -0.00545  -0.00545   1.00968
    D4        1.04257   0.00005   0.00000   0.00088   0.00088   1.04345
    D5       -3.11415   0.00039   0.00000   0.00633   0.00633  -3.10782
    D6       -1.08390  -0.00029   0.00000  -0.00457  -0.00456  -1.08846
    D7       -1.04257  -0.00005   0.00000  -0.00088  -0.00088  -1.04345
    D8        1.08390   0.00029   0.00000   0.00457   0.00456   1.08846
    D9        3.11415  -0.00039   0.00000  -0.00633  -0.00633   3.10782
   D10        3.14159   0.00000   0.00000   0.00000   0.00000   3.14159
   D11       -1.01512   0.00034   0.00000   0.00545   0.00545  -1.00968
   D12        1.01512  -0.00034   0.00000  -0.00545  -0.00545   1.00968
   D13       -1.04257  -0.00005   0.00000  -0.00088  -0.00088  -1.04345
   D14        1.08390   0.00029   0.00000   0.00457   0.00456   1.08846
   D15        3.11415  -0.00039   0.00000  -0.00633  -0.00633   3.10782
   D16        1.04257   0.00005   0.00000   0.00088   0.00088   1.04345
   D17       -3.11415   0.00039   0.00000   0.00633   0.00633  -3.10782
   D18       -1.08390  -0.00029   0.00000  -0.00457  -0.00456  -1.08846
   D19        3.14159   0.00000   0.00000   0.00000   0.00000   3.14159
   D20       -1.01097   0.00023   0.00000   0.00429   0.00429  -1.00668
   D21        1.01097  -0.00023   0.00000  -0.00429  -0.00429   1.00668
   D22        1.01097  -0.00023   0.00000  -0.00429  -0.00429   1.00668
   D23        3.14159   0.00000   0.00000   0.00000   0.00000   3.14159
   D24       -1.11966  -0.00047   0.00000  -0.00858  -0.00858  -1.12824
   D25       -1.01097   0.00023   0.00000   0.00429   0.00429  -1.00668
   D26        1.11966   0.00047   0.00000   0.00858   0.00858   1.12824
   D27        3.14159   0.00000   0.00000   0.00000   0.00000   3.14159
   D28        3.14159   0.00000   0.00000   0.00000   0.00000   3.14159
   D29        1.00987  -0.00014   0.00000  -0.00306  -0.00307   1.00680
   D30       -1.00987   0.00014   0.00000   0.00306   0.00307  -1.00680
   D31       -1.01026   0.00024   0.00000   0.00434   0.00434  -1.00592
   D32        3.14120   0.00010   0.00000   0.00128   0.00127  -3.14071
   D33        1.12146   0.00038   0.00000   0.00740   0.00741   1.12886
   D34        1.01026  -0.00024   0.00000  -0.00434  -0.00434   1.00592
   D35       -1.12146  -0.00038   0.00000  -0.00740  -0.00741  -1.12886
   D36       -3.14120  -0.00010   0.00000  -0.00128  -0.00127   3.14071
   D37        3.14159   0.00000   0.00000   0.00000   0.00000   3.14159
   D38        1.00987  -0.00014   0.00000  -0.00306  -0.00307   1.00680
   D39       -1.00987   0.00014   0.00000   0.00306   0.00307  -1.00680
   D40        1.01026  -0.00024   0.00000  -0.00434  -0.00434   1.00592
   D41       -1.12146  -0.00038   0.00000  -0.00740  -0.00741  -1.12886
   D42       -3.14120  -0.00010   0.00000  -0.00128  -0.00127   3.14071
   D43       -1.01026   0.00024   0.00000   0.00434   0.00434  -1.00592
   D44        3.14120   0.00010   0.00000   0.00128   0.00127  -3.14071
   D45        1.12146   0.00038   0.00000   0.00740   0.00741   1.12886
         Item               Value     Threshold  Converged?
 Maximum Force            0.004466     0.000450     NO 
 RMS     Force            0.001708     0.000300     NO 
 Maximum Displacement     0.031353     0.001800     NO 
 RMS     Displacement     0.012008     0.001200     NO 
 Predicted change in Energy=-4.847433D-04
 GradGradGradGradGradGradGradGradGradGradGradGradGradGradGradGradGradGrad

                          Input orientation:                          
 ---------------------------------------------------------------------
 Center     Atomic      Atomic             Coordinates (Angstroms)
 Number     Number       Type             X           Y           Z
 ---------------------------------------------------------------------
      1          6           0        1.427226    2.900739    0.000000
      2          6           0       -1.427226   -2.900739    0.000000
      3          6           0        0.009870    0.766939    0.000000
      4          6           0       -0.009870   -0.766939    0.000000
      5          6           0       -1.421561   -1.368607    0.000000
      6          6           0        1.421561    1.368607    0.000000
      7          1           0       -2.447096   -3.301822    0.000000
      8          1           0        2.447096    3.301822    0.000000
      9          1           0        0.913730    3.297905    0.884272
     10          1           0        0.913730    3.297905   -0.884272
     11          1           0       -0.913730   -3.297905   -0.884272
     12          1           0       -0.913730   -3.297905    0.884272
     13          1           0        1.971708    0.999742   -0.877487
     14          1           0        1.971708    0.999742    0.877487
     15          1           0       -1.971708   -0.999742   -0.877487
     16          1           0       -1.971708   -0.999742    0.877487
     17          1           0       -0.540894    1.137036    0.877950
     18          1           0       -0.540894    1.137036   -0.877950
     19          1           0        0.540894   -1.137036   -0.877950
     20          1           0        0.540894   -1.137036    0.877950
 ---------------------------------------------------------------------
                    Distance matrix (angstroms):
                    1          2          3          4          5
     1  C    0.000000
     2  C    6.465682   0.000000
     3  C    2.561640   3.939176   0.000000
     4  C    3.939176   2.561640   1.534005   0.000000
     5  C    5.132534   1.532142   2.570905   1.534560   0.000000
     6  C    1.532142   5.132534   1.534560   2.570905   3.946605
     7  H    7.313148   1.095903   4.753052   3.516490   2.188388
     8  H    1.095903   7.313148   3.516490   4.753052   6.064604
     9  H    1.096976   6.684699   2.829256   4.261213   5.292623
    10  H    1.096976   6.684699   2.829256   4.261213   5.292623
    11  H    6.684699   1.096976   4.261213   2.829256   2.182205
    12  H    6.684699   1.096976   4.261213   2.829256   2.182205
    13  H    2.163385   5.247522   2.161710   2.796033   4.230052
    14  H    2.163385   5.247522   2.161710   2.796033   4.230052
    15  H    5.247522   2.163385   2.796033   2.161710   1.099412
    16  H    5.247522   2.163385   2.796033   2.161710   1.099412
    17  H    2.784769   4.226110   1.100505   2.162847   2.797252
    18  H    2.784769   4.226110   1.100505   2.162847   2.797252
    19  H    4.226110   2.784769   2.162847   1.100505   2.162326
    20  H    4.226110   2.784769   2.162847   1.100505   2.162326
                    6          7          8          9         10
     6  C    0.000000
     7  H    6.064604   0.000000
     8  H    2.188388   8.219564   0.000000
     9  H    2.182205   7.458786   1.770075   0.000000
    10  H    2.182205   7.458786   1.770075   1.768544   0.000000
    11  H    5.292623   1.770075   7.458786   7.069093   6.844291
    12  H    5.292623   1.770075   7.458786   6.844291   7.069093
    13  H    1.099412   6.228906   2.509093   3.082964   2.530003
    14  H    1.099412   6.228906   2.509093   2.530003   3.082964
    15  H    4.230052   2.509093   6.228906   5.468027   5.176444
    16  H    4.230052   2.509093   6.228906   5.176444   5.468027
    17  H    2.162326   4.909976   3.792780   2.604866   3.144950
    18  H    2.162326   4.909976   3.792780   3.144950   2.604866
    19  H    2.797252   3.792780   4.909976   4.786767   4.450590
    20  H    2.797252   3.792780   4.909976   4.450590   4.786767
                   11         12         13         14         15
    11  H    0.000000
    12  H    1.768544   0.000000
    13  H    5.176444   5.468027   0.000000
    14  H    5.468027   5.176444   1.754974   0.000000
    15  H    2.530003   3.082964   4.421365   4.756932   0.000000
    16  H    3.082964   2.530003   4.756932   4.421365   1.754974
    17  H    4.786767   4.450590   3.068156   2.516351   3.113617
    18  H    4.450590   4.786767   2.516351   3.068156   2.571585
    19  H    2.604866   3.144950   2.571585   3.113617   2.516351
    20  H    3.144950   2.604866   3.113617   2.571585   3.068156
                   16         17         18         19         20
    16  H    0.000000
    17  H    2.571585   0.000000
    18  H    3.113617   1.755900   0.000000
    19  H    3.068156   3.069994   2.518268   0.000000
    20  H    2.516351   2.518268   3.069994   1.755900   0.000000
 Stoichiometry    C6H14
 Framework group  C2H[SGH(C6H2),X(H12)]
 Deg. of freedom    16
 Full point group                 C2H     NOp   4
 Largest Abelian subgroup         C2H     NOp   4
 Largest concise Abelian subgroup C2H     NOp   4
                         Standard orientation:                         
 ---------------------------------------------------------------------
 Center     Atomic      Atomic             Coordinates (Angstroms)
 Number     Number       Type             X           Y           Z
 ---------------------------------------------------------------------
      1          6           0        1.416491    2.905996    0.000000
      2          6           0       -1.416491   -2.905996    0.000000
      3          6           0        0.007035    0.766970    0.000000
      4          6           0       -0.007035   -0.766970    0.000000
      5          6           0       -1.416491   -1.373854    0.000000
      6          6           0        1.416491    1.373854    0.000000
      7          1           0       -2.434872   -3.310846    0.000000
      8          1           0        2.434872    3.310846    0.000000
      9          1           0        0.901531    3.301261    0.884272
     10          1           0        0.901531    3.301261   -0.884272
     11          1           0       -0.901531   -3.301261   -0.884272
     12          1           0       -0.901531   -3.301261    0.884272
     13          1           0        1.967998    1.007025   -0.877487
     14          1           0        1.967998    1.007025    0.877487
     15          1           0       -1.967998   -1.007025   -0.877487
     16          1           0       -1.967998   -1.007025    0.877487
     17          1           0       -0.545095    1.135029    0.877950
     18          1           0       -0.545095    1.135029   -0.877950
     19          1           0        0.545095   -1.135029   -0.877950
     20          1           0        0.545095   -1.135029    0.877950
 ---------------------------------------------------------------------
 Rotational constants (GHZ):     14.5910483      1.1234568      1.0850819
 Standard basis: 6-31G(d) (6D, 7F)
 There are    41 symmetry adapted basis functions of AG  symmetry.
 There are    18 symmetry adapted basis functions of BG  symmetry.
 There are    18 symmetry adapted basis functions of AU  symmetry.
 There are    41 symmetry adapted basis functions of BU  symmetry.
 Integral buffers will be    131072 words long.
 Raffenetti 2 integral format.
 Two-electron integral symmetry is turned on.
   118 basis functions,   224 primitive gaussians,   118 cartesian basis functions
    25 alpha electrons       25 beta electrons
       nuclear repulsion energy       243.0601306428 Hartrees.
 NAtoms=   20 NActive=   20 NUniq=    7 SFac= 4.00D+00 NAtFMM=   50 NAOKFM=F Big=F
 One-electron integrals computed using PRISM.
 NBasis=   118 RedAO= T  NBF=    41    18    18    41
 NBsUse=   118 1.00D-06 NBFU=    41    18    18    41
 Initial guess read from the read-write file.
 B after Tr=     0.000000    0.000000    0.000000
         Rot=    1.000000    0.000000    0.000000    0.000000 Ang=   0.00 deg.
 Initial guess orbital symmetries:
       Occupied  (BU) (AG) (AG) (BU) (BU) (AG) (AG) (BU) (AG) (BU)
                 (AG) (BU) (AU) (BG) (AG) (BU) (AU) (BU) (AG) (BG)
                 (BU) (AU) (AG) (BG) (AG)
       Virtual   (AG) (BU) (AU) (BU) (AG) (BG) (AG) (BU) (BU) (AU)
                 (AG) (BG) (AU) (BG) (BU) (AG) (BU) (AG) (BU) (AG)
                 (BU) (AG) (BG) (AU) (AU) (BU) (AG) (BU) (BG) (AG)
                 (BU) (AG) (AU) (BU) (BG) (BU) (AU) (AG) (BG) (AG)
                 (BU) (AU) (BG) (BU) (BU) (AU) (AG) (AG) (BU) (AG)
                 (AG) (BG) (BU) (AU) (AG) (BU) (BU) (AG) (AG) (BU)
                 (BG) (AG) (BU) (AU) (AG) (AG) (BG) (BU) (BU) (AU)
                 (AG) (BU) (BG) (BG) (AG) (AU) (BU) (AU) (BG) (AU)
                 (BG) (AG) (AG) (BU) (BU) (AG) (BU) (AG) (BU) (AG)
                 (BU) (AG) (BU)
 Harris functional with IExCor=  402 diagonalized for initial guess.
 ExpMin= 1.61D-01 ExpMax= 3.05D+03 ExpMxC= 4.57D+02 IAcc=1 IRadAn=         1 AccDes= 0.00D+00
 HarFok:  IExCor=  402 AccDes= 0.00D+00 IRadAn=         1 IDoV= 1
 ScaDFX=  1.000000  1.000000  1.000000  1.000000
 FoFCou: FMM=F IPFlag=           0 FMFlag=      100000 FMFlg1=           0
         NFxFlg=           0 DoJE=T BraDBF=F KetDBF=T FulRan=T
         Omega=  0.000000  0.000000  1.000000  0.000000  0.000000 ICntrl=     500 IOpCl=  0
         NMat0=    1 NMatS0=    1 NMatT0=    0 NMatD0=    1 NMtDS0=    0 NMtDT0=    0
         I1Cent=           4 NGrid=           0.
 Petite list used in FoFCou.
 Requested convergence on RMS density matrix=1.00D-08 within 128 cycles.
 Requested convergence on MAX density matrix=1.00D-06.
 Requested convergence on             energy=1.00D-06.
 No special actions if energy rises.
 Keep R1 ints in memory in canonical form, NReq=25820103.
 Integral accuracy reduced to 1.0D-05 until final iterations.
 Initial convergence to 1.0D-05 achieved.  Increase integral accuracy.
 SCF Done:  E(RB3LYP) =  -237.085493549     A.U. after   10 cycles
             Convg  =    0.4254D-08             -V/T =  2.0105
 Calling FoFJK, ICntrl=      2127 FMM=F ISym2X=1 I1Cent= 0 IOpClX= 0 NMat=1 NMatS=1 NMatT=0.
 ***** Axes restored to original set *****
 -------------------------------------------------------------------
 Center     Atomic                   Forces (Hartrees/Bohr)
 Number     Number              X              Y              Z
 -------------------------------------------------------------------
      1        6          -0.000470618    0.000007458    0.000000000
      2        6           0.000470618   -0.000007458    0.000000000
      3        6          -0.000740090    0.000378151    0.000000000
      4        6           0.000740090   -0.000378151    0.000000000
      5        6          -0.000336940    0.000622241    0.000000000
      6        6           0.000336940   -0.000622241    0.000000000
      7        1          -0.000181705    0.000270047    0.000000000
      8        1           0.000181705   -0.000270047    0.000000000
      9        1          -0.000045430    0.000044014    0.000082608
     10        1          -0.000045430    0.000044014   -0.000082608
     11        1           0.000045430   -0.000044014   -0.000082608
     12        1           0.000045430   -0.000044014    0.000082608
     13        1          -0.000040818    0.000075321   -0.000073738
     14        1          -0.000040818    0.000075321    0.000073738
     15        1           0.000040818   -0.000075321   -0.000073738
     16        1           0.000040818   -0.000075321    0.000073738
     17        1           0.000068497   -0.000013404    0.000057908
     18        1           0.000068497   -0.000013404   -0.000057908
     19        1          -0.000068497    0.000013404   -0.000057908
     20        1          -0.000068497    0.000013404    0.000057908
 -------------------------------------------------------------------
 Cartesian Forces:  Max     0.000740090 RMS     0.000229679

 GradGradGradGradGradGradGradGradGradGradGradGradGradGradGradGradGradGrad
 Berny optimization.
 Using GEDIIS/GDIIS optimizer.
 Internal  Forces:  Max     0.000689865 RMS     0.000169020
 Search for a local minimum.
 Step number   2 out of a maximum of  110
 All quantities printed in internal units (Hartrees-Bohrs-Radians)
 Mixed Optimization -- En-DIIS/RFO-DIIS
 Update second derivatives using D2CorX and points    1    2
 DE= -4.62D-04 DEPred=-4.85D-04 R= 9.53D-01
 SS=  1.41D+00  RLast= 6.41D-02 DXNew= 5.0454D-01 1.9218D-01
 Trust test= 9.53D-01 RLast= 6.41D-02 DXMaxT set to 3.00D-01
 ITU=  1  0
 Use linear search instead of GDIIS.
     Eigenvalues ---    0.00354   0.00354   0.00358   0.00363   0.00363
     Eigenvalues ---    0.03394   0.03394   0.03444   0.03444   0.04786
     Eigenvalues ---    0.04793   0.04799   0.04915   0.05428   0.05428
     Eigenvalues ---    0.05494   0.05503   0.08446   0.08464   0.08550
     Eigenvalues ---    0.08550   0.12299   0.12299   0.12361   0.12361
     Eigenvalues ---    0.15830   0.16000   0.16000   0.16000   0.16000
     Eigenvalues ---    0.16137   0.21832   0.21896   0.21906   0.22417
     Eigenvalues ---    0.29319   0.29336   0.29374   0.29383   0.29527
     Eigenvalues ---    0.32701   0.32847   0.32847   0.32847   0.32952
     Eigenvalues ---    0.32996   0.32996   0.32996   0.33281   0.33281
     Eigenvalues ---    0.33281   0.33356   0.33387   0.33639
 RFO step:  Lambda=-1.33981144D-05 EMin= 3.54149091D-03
 Quartic linear search produced a step of -0.04421.
 Iteration  1 RMS(Cart)=  0.00234562 RMS(Int)=  0.00000149
 Iteration  2 RMS(Cart)=  0.00000280 RMS(Int)=  0.00000046
 Iteration  3 RMS(Cart)=  0.00000000 RMS(Int)=  0.00000046
 ClnCor:  largest displacement from symmetrization is 5.03D-10 for atom    19.
 Variable       Old X    -DE/DX   Delta X   Delta X   Delta X     New X
                                 (Linear)    (Quad)   (Total)
    R1        2.89533  -0.00017  -0.00014  -0.00037  -0.00051   2.89482
    R2        2.07096   0.00007   0.00057  -0.00056   0.00001   2.07097
    R3        2.07298   0.00010   0.00056  -0.00044   0.00012   2.07310
    R4        2.07298   0.00010   0.00056  -0.00044   0.00012   2.07310
    R5        2.89533  -0.00017  -0.00014  -0.00037  -0.00051   2.89482
    R6        2.07096   0.00007   0.00057  -0.00056   0.00001   2.07097
    R7        2.07298   0.00010   0.00056  -0.00044   0.00012   2.07310
    R8        2.07298   0.00010   0.00056  -0.00044   0.00012   2.07310
    R9        2.89885  -0.00030  -0.00027  -0.00062  -0.00088   2.89797
   R10        2.89990  -0.00037  -0.00029  -0.00084  -0.00113   2.89877
   R11        2.07965   0.00001   0.00060  -0.00078  -0.00018   2.07948
   R12        2.07965   0.00001   0.00060  -0.00078  -0.00018   2.07948
   R13        2.89990  -0.00037  -0.00029  -0.00084  -0.00113   2.89877
   R14        2.07965   0.00001   0.00060  -0.00078  -0.00018   2.07948
   R15        2.07965   0.00001   0.00060  -0.00078  -0.00018   2.07948
   R16        2.07759   0.00001   0.00057  -0.00073  -0.00015   2.07743
   R17        2.07759   0.00001   0.00057  -0.00073  -0.00015   2.07743
   R18        2.07759   0.00001   0.00057  -0.00073  -0.00015   2.07743
   R19        2.07759   0.00001   0.00057  -0.00073  -0.00015   2.07743
    A1        1.94918  -0.00048  -0.00002  -0.00318  -0.00321   1.94597
    A2        1.93941   0.00009  -0.00021   0.00103   0.00081   1.94022
    A3        1.93941   0.00009  -0.00021   0.00103   0.00081   1.94022
    A4        1.87876   0.00017   0.00016   0.00043   0.00059   1.87935
    A5        1.87876   0.00017   0.00016   0.00043   0.00059   1.87935
    A6        1.87506  -0.00002   0.00016   0.00036   0.00052   1.87558
    A7        1.94918  -0.00048  -0.00002  -0.00318  -0.00321   1.94597
    A8        1.93941   0.00009  -0.00021   0.00103   0.00081   1.94022
    A9        1.93941   0.00009  -0.00021   0.00103   0.00081   1.94022
   A10        1.87876   0.00017   0.00016   0.00043   0.00059   1.87935
   A11        1.87876   0.00017   0.00016   0.00043   0.00059   1.87935
   A12        1.87506  -0.00002   0.00016   0.00036   0.00052   1.87558
   A13        1.98656  -0.00069  -0.00033  -0.00306  -0.00339   1.98316
   A14        1.90692   0.00021   0.00002   0.00076   0.00078   1.90770
   A15        1.90692   0.00021   0.00002   0.00076   0.00078   1.90770
   A16        1.90555   0.00018   0.00002   0.00039   0.00041   1.90597
   A17        1.90555   0.00018   0.00002   0.00039   0.00041   1.90597
   A18        1.84718  -0.00006   0.00030   0.00104   0.00134   1.84852
   A19        1.98656  -0.00069  -0.00033  -0.00306  -0.00339   1.98316
   A20        1.90692   0.00021   0.00002   0.00076   0.00078   1.90770
   A21        1.90692   0.00021   0.00002   0.00076   0.00078   1.90770
   A22        1.90555   0.00018   0.00002   0.00039   0.00041   1.90597
   A23        1.90555   0.00018   0.00002   0.00039   0.00041   1.90597
   A24        1.84718  -0.00006   0.00030   0.00104   0.00134   1.84852
   A25        1.97738  -0.00032  -0.00040  -0.00125  -0.00165   1.97574
   A26        1.91098   0.00006   0.00013  -0.00029  -0.00016   1.91082
   A27        1.91098   0.00006   0.00013  -0.00029  -0.00016   1.91082
   A28        1.90582   0.00011  -0.00005   0.00051   0.00046   1.90628
   A29        1.90582   0.00011  -0.00005   0.00051   0.00046   1.90628
   A30        1.84841   0.00001   0.00027   0.00096   0.00124   1.84965
   A31        1.97738  -0.00032  -0.00040  -0.00125  -0.00165   1.97574
   A32        1.91098   0.00006   0.00013  -0.00029  -0.00016   1.91082
   A33        1.91098   0.00006   0.00013  -0.00029  -0.00016   1.91082
   A34        1.90582   0.00011  -0.00005   0.00051   0.00046   1.90628
   A35        1.90582   0.00011  -0.00005   0.00051   0.00046   1.90628
   A36        1.84841   0.00001   0.00027   0.00096   0.00124   1.84965
    D1        3.14159   0.00000   0.00000   0.00000   0.00000   3.14159
    D2       -1.00968  -0.00004  -0.00024  -0.00041  -0.00065  -1.01033
    D3        1.00968   0.00004   0.00024   0.00041   0.00065   1.01033
    D4        1.04345   0.00005  -0.00004   0.00091   0.00087   1.04432
    D5       -3.10782   0.00001  -0.00028   0.00049   0.00021  -3.10761
    D6       -1.08846   0.00009   0.00020   0.00132   0.00152  -1.08694
    D7       -1.04345  -0.00005   0.00004  -0.00091  -0.00087  -1.04432
    D8        1.08846  -0.00009  -0.00020  -0.00132  -0.00152   1.08694
    D9        3.10782  -0.00001   0.00028  -0.00049  -0.00021   3.10761
   D10        3.14159   0.00000   0.00000   0.00000   0.00000   3.14159
   D11       -1.00968  -0.00004  -0.00024  -0.00041  -0.00065  -1.01033
   D12        1.00968   0.00004   0.00024   0.00041   0.00065   1.01033
   D13       -1.04345  -0.00005   0.00004  -0.00091  -0.00087  -1.04432
   D14        1.08846  -0.00009  -0.00020  -0.00132  -0.00152   1.08694
   D15        3.10782  -0.00001   0.00028  -0.00049  -0.00021   3.10761
   D16        1.04345   0.00005  -0.00004   0.00091   0.00087   1.04432
   D17       -3.10782   0.00001  -0.00028   0.00049   0.00021  -3.10761
   D18       -1.08846   0.00009   0.00020   0.00132   0.00152  -1.08694
   D19        3.14159   0.00000   0.00000   0.00000   0.00000   3.14159
   D20       -1.00668  -0.00008  -0.00019  -0.00104  -0.00123  -1.00791
   D21        1.00668   0.00008   0.00019   0.00104   0.00123   1.00791
   D22        1.00668   0.00008   0.00019   0.00104   0.00123   1.00791
   D23        3.14159   0.00000   0.00000   0.00000   0.00000   3.14159
   D24       -1.12824   0.00017   0.00038   0.00209   0.00247  -1.12577
   D25       -1.00668  -0.00008  -0.00019  -0.00104  -0.00123  -1.00791
   D26        1.12824  -0.00017  -0.00038  -0.00209  -0.00247   1.12577
   D27        3.14159   0.00000   0.00000   0.00000   0.00000   3.14159
   D28        3.14159   0.00000   0.00000   0.00000   0.00000   3.14159
   D29        1.00680   0.00007   0.00014   0.00086   0.00099   1.00780
   D30       -1.00680  -0.00007  -0.00014  -0.00086  -0.00099  -1.00780
   D31       -1.00592  -0.00007  -0.00019  -0.00084  -0.00103  -1.00695
   D32       -3.14071   0.00000  -0.00006   0.00002  -0.00004  -3.14075
   D33        1.12886  -0.00013  -0.00033  -0.00169  -0.00202   1.12684
   D34        1.00592   0.00007   0.00019   0.00084   0.00103   1.00695
   D35       -1.12886   0.00013   0.00033   0.00169   0.00202  -1.12684
   D36        3.14071   0.00000   0.00006  -0.00002   0.00004   3.14075
   D37        3.14159   0.00000   0.00000   0.00000   0.00000   3.14159
   D38        1.00680   0.00007   0.00014   0.00086   0.00099   1.00780
   D39       -1.00680  -0.00007  -0.00014  -0.00086  -0.00099  -1.00780
   D40        1.00592   0.00007   0.00019   0.00084   0.00103   1.00695
   D41       -1.12886   0.00013   0.00033   0.00169   0.00202  -1.12684
   D42        3.14071   0.00000   0.00006  -0.00002   0.00004   3.14075
   D43       -1.00592  -0.00007  -0.00019  -0.00084  -0.00103  -1.00695
   D44       -3.14071   0.00000  -0.00006   0.00002  -0.00004  -3.14075
   D45        1.12886  -0.00013  -0.00033  -0.00169  -0.00202   1.12684
         Item               Value     Threshold  Converged?
 Maximum Force            0.000690     0.000450     NO 
 RMS     Force            0.000169     0.000300     YES
 Maximum Displacement     0.009948     0.001800     NO 
 RMS     Displacement     0.002348     0.001200     NO 
 Predicted change in Energy=-7.724254D-06
 GradGradGradGradGradGradGradGradGradGradGradGradGradGradGradGradGradGrad

                          Input orientation:                          
 ---------------------------------------------------------------------
 Center     Atomic      Atomic             Coordinates (Angstroms)
 Number     Number       Type             X           Y           Z
 ---------------------------------------------------------------------
      1          6           0        1.425075    2.898307    0.000000
      2          6           0       -1.425075   -2.898307    0.000000
      3          6           0        0.008199    0.766725    0.000000
      4          6           0       -0.008199   -0.766725    0.000000
      5          6           0       -1.420072   -1.366445    0.000000
      6          6           0        1.420072    1.366445    0.000000
      7          1           0       -2.446061   -3.296557    0.000000
      8          1           0        2.446061    3.296557    0.000000
      9          1           0        0.912311    3.296102    0.884491
     10          1           0        0.912311    3.296102   -0.884491
     11          1           0       -0.912311   -3.296102   -0.884491
     12          1           0       -0.912311   -3.296102    0.884491
     13          1           0        1.969795    0.998009   -0.877831
     14          1           0        1.969795    0.998009    0.877831
     15          1           0       -1.969795   -0.998009   -0.877831
     16          1           0       -1.969795   -0.998009    0.877831
     17          1           0       -0.542081    1.136386    0.878321
     18          1           0       -0.542081    1.136386   -0.878321
     19          1           0        0.542081   -1.136386   -0.878321
     20          1           0        0.542081   -1.136386    0.878321
 ---------------------------------------------------------------------
                    Distance matrix (angstroms):
                    1          2          3          4          5
     1  C    0.000000
     2  C    6.459419   0.000000
     3  C    2.559527   3.935319   0.000000
     4  C    3.935319   2.559527   1.533538   0.000000
     5  C    5.126692   1.531870   2.567172   1.533965   0.000000
     6  C    1.531870   5.126692   1.533965   2.567172   3.941459
     7  H    7.304933   1.095909   4.746963   3.513292   2.185861
     8  H    1.095909   7.304933   3.513292   4.746963   6.057274
     9  H    1.097038   6.679551   2.827983   4.258665   5.287880
    10  H    1.097038   6.679551   2.827983   4.258665   5.287880
    11  H    6.679551   1.097038   4.258665   2.827983   2.182595
    12  H    6.679551   1.097038   4.258665   2.827983   2.182595
    13  H    2.162970   5.241852   2.161467   2.792371   4.225213
    14  H    2.162970   5.241852   2.161467   2.792371   4.225213
    15  H    5.241852   2.162970   2.792371   2.161467   1.099331
    16  H    5.241852   2.162970   2.792371   2.161467   1.099331
    17  H    2.783077   4.222544   1.100412   2.162940   2.794008
    18  H    2.783077   4.222544   1.100412   2.162940   2.794008
    19  H    4.222544   2.783077   2.162940   1.100412   2.162040
    20  H    4.222544   2.783077   2.162940   1.100412   2.162040
                    6          7          8          9         10
     6  C    0.000000
     7  H    6.057274   0.000000
     8  H    2.185861   8.209874   0.000000
     9  H    2.182595   7.451452   1.770512   0.000000
    10  H    2.182595   7.451452   1.770512   1.768982   0.000000
    11  H    5.287880   1.770512   7.451452   7.065103   6.840058
    12  H    5.287880   1.770512   7.451452   6.840058   7.065103
    13  H    1.099331   6.222031   2.506141   3.083063   2.529732
    14  H    1.099331   6.222031   2.506141   2.529732   3.083063
    15  H    4.225213   2.506141   6.222031   5.463671   5.171650
    16  H    4.225213   2.506141   6.222031   5.171650   5.463671
    17  H    2.162040   4.903833   3.790354   2.603779   3.144381
    18  H    2.162040   4.903833   3.790354   3.144381   2.603779
    19  H    2.794008   3.790354   4.903833   4.784509   4.447927
    20  H    2.794008   3.790354   4.903833   4.447927   4.784509
                   11         12         13         14         15
    11  H    0.000000
    12  H    1.768982   0.000000
    13  H    5.171650   5.463671   0.000000
    14  H    5.463671   5.171650   1.755663   0.000000
    15  H    2.529732   3.083063   4.416385   4.752558   0.000000
    16  H    3.083063   2.529732   4.752558   4.416385   1.755663
    17  H    4.784509   4.447927   3.068019   2.515684   3.110962
    18  H    4.447927   4.784509   2.515684   3.068019   2.567880
    19  H    2.603779   3.144381   2.567880   3.110962   2.515684
    20  H    3.144381   2.603779   3.110962   2.567880   3.068019
                   16         17         18         19         20
    16  H    0.000000
    17  H    2.567880   0.000000
    18  H    3.110962   1.756643   0.000000
    19  H    3.068019   3.070292   2.518114   0.000000
    20  H    2.515684   2.518114   3.070292   1.756643   0.000000
 Stoichiometry    C6H14
 Framework group  C2H[SGH(C6H2),X(H12)]
 Deg. of freedom    16
 Full point group                 C2H     NOp   4
 Largest Abelian subgroup         C2H     NOp   4
 Largest concise Abelian subgroup C2H     NOp   4
                         Standard orientation:                         
 ---------------------------------------------------------------------
 Center     Atomic      Atomic             Coordinates (Angstroms)
 Number     Number       Type             X           Y           Z
 ---------------------------------------------------------------------
      1          6           0        1.415601    2.902946    0.000000
      2          6           0       -1.415601   -2.902946    0.000000
      3          6           0        0.005695    0.766748    0.000000
      4          6           0       -0.005695   -0.766748    0.000000
      5          6           0       -1.415601   -1.371076    0.000000
      6          6           0        1.415601    1.371076    0.000000
      7          1           0       -2.435281   -3.304529    0.000000
      8          1           0        2.435281    3.304529    0.000000
      9          1           0        0.901540    3.299064    0.884491
     10          1           0        0.901540    3.299064   -0.884491
     11          1           0       -0.901540   -3.299064   -0.884491
     12          1           0       -0.901540   -3.299064    0.884491
     13          1           0        1.966524    1.004438   -0.877831
     14          1           0        1.966524    1.004438    0.877831
     15          1           0       -1.966524   -1.004438   -0.877831
     16          1           0       -1.966524   -1.004438    0.877831
     17          1           0       -0.545790    1.134609    0.878321
     18          1           0       -0.545790    1.134609   -0.878321
     19          1           0        0.545790   -1.134609   -0.878321
     20          1           0        0.545790   -1.134609    0.878321
 ---------------------------------------------------------------------
 Rotational constants (GHZ):     14.5759054      1.1258201      1.0872331
 Standard basis: 6-31G(d) (6D, 7F)
 There are    41 symmetry adapted basis functions of AG  symmetry.
 There are    18 symmetry adapted basis functions of BG  symmetry.
 There are    18 symmetry adapted basis functions of AU  symmetry.
 There are    41 symmetry adapted basis functions of BU  symmetry.
 Integral buffers will be    131072 words long.
 Raffenetti 2 integral format.
 Two-electron integral symmetry is turned on.
   118 basis functions,   224 primitive gaussians,   118 cartesian basis functions
    25 alpha electrons       25 beta electrons
       nuclear repulsion energy       243.1863481112 Hartrees.
 NAtoms=   20 NActive=   20 NUniq=    7 SFac= 4.00D+00 NAtFMM=   50 NAOKFM=F Big=F
 One-electron integrals computed using PRISM.
 NBasis=   118 RedAO= T  NBF=    41    18    18    41
 NBsUse=   118 1.00D-06 NBFU=    41    18    18    41
 Initial guess read from the read-write file.
 B after Tr=     0.000000    0.000000    0.000000
         Rot=    1.000000    0.000000    0.000000    0.000000 Ang=   0.00 deg.
 Initial guess orbital symmetries:
       Occupied  (BU) (AG) (AG) (BU) (BU) (AG) (AG) (BU) (AG) (BU)
                 (AG) (BU) (AU) (BG) (AG) (BU) (AU) (BU) (AG) (BG)
                 (BU) (AU) (AG) (BG) (AG)
       Virtual   (AG) (BU) (AU) (BU) (AG) (BG) (AG) (BU) (BU) (AU)
                 (AG) (BG) (AU) (BG) (BU) (AG) (BU) (AG) (BU) (AG)
                 (BU) (AG) (BG) (AU) (AU) (BU) (AG) (BU) (BG) (AG)
                 (BU) (AG) (AU) (BU) (BG) (BU) (AU) (AG) (BG) (BU)
                 (AG) (AU) (BG) (BU) (BU) (AU) (AG) (AG) (BU) (AG)
                 (AG) (BG) (BU) (AU) (AG) (BU) (BU) (AG) (AG) (BU)
                 (BG) (AG) (BU) (AU) (AG) (AG) (BG) (BU) (BU) (AU)
                 (AG) (BU) (BG) (AG) (BG) (AU) (BU) (AU) (BG) (AU)
                 (BG) (AG) (AG) (BU) (BU) (AG) (BU) (AG) (BU) (AG)
                 (BU) (AG) (BU)
 Requested convergence on RMS density matrix=1.00D-08 within 128 cycles.
 Requested convergence on MAX density matrix=1.00D-06.
 Requested convergence on             energy=1.00D-06.
 No special actions if energy rises.
 Keep R1 ints in memory in canonical form, NReq=25820103.
 SCF Done:  E(RB3LYP) =  -237.085500432     A.U. after    7 cycles
             Convg  =    0.3661D-08             -V/T =  2.0105
 Calling FoFJK, ICntrl=      2127 FMM=F ISym2X=1 I1Cent= 0 IOpClX= 0 NMat=1 NMatS=1 NMatT=0.
 ***** Axes restored to original set *****
 -------------------------------------------------------------------
 Center     Atomic                   Forces (Hartrees/Bohr)
 Number     Number              X              Y              Z
 -------------------------------------------------------------------
      1        6           0.000046825    0.000094753    0.000000000
      2        6          -0.000046825   -0.000094753    0.000000000
      3        6          -0.000038417    0.000044033    0.000000000
      4        6           0.000038417   -0.000044033    0.000000000
      5        6           0.000012577    0.000035474    0.000000000
      6        6          -0.000012577   -0.000035474    0.000000000
      7        1          -0.000098680   -0.000051163    0.000000000
      8        1           0.000098680    0.000051163    0.000000000
      9        1          -0.000018239   -0.000003605    0.000035054
     10        1          -0.000018239   -0.000003605   -0.000035054
     11        1           0.000018239    0.000003605   -0.000035054
     12        1           0.000018239    0.000003605    0.000035054
     13        1          -0.000000474    0.000015424   -0.000048106
     14        1          -0.000000474    0.000015424    0.000048106
     15        1           0.000000474   -0.000015424   -0.000048106
     16        1           0.000000474   -0.000015424    0.000048106
     17        1           0.000011938   -0.000014830    0.000036062
     18        1           0.000011938   -0.000014830   -0.000036062
     19        1          -0.000011938    0.000014830   -0.000036062
     20        1          -0.000011938    0.000014830    0.000036062
 -------------------------------------------------------------------
 Cartesian Forces:  Max     0.000098680 RMS     0.000036486

 GradGradGradGradGradGradGradGradGradGradGradGradGradGradGradGradGradGrad
 Berny optimization.
 Using GEDIIS/GDIIS optimizer.
 Internal  Forces:  Max     0.000155039 RMS     0.000047979
[...]
 00034468,0.00001174,0.,-0.08586126,-0.08038772,0.,-0.00244419,0.000135
 95,0.,0.00294737,-0.00703528,0.,-0.03373324,-0.01097732,0.,0.00041769,
 -0.00079596,0.,0.09511373,0.08804995,0.,0.,0.00000009,0.,0.,-0.0499076
 9,0.,0.,0.00059909,0.,0.,0.00022606,0.,0.,-0.00136621,0.,0.,-0.0000070
 0,0.,0.,0.04806249,-0.28056401,-0.08654324,0.,-0.00006897,0.00002741,0
 .,0.00108254,-0.00049019,0.,-0.00002562,0.00042160,0.,0.00011957,-0.00
 005538,0.,0.00248821,0.00160129,0.,-0.00001943,-0.00003619,0.,0.303029
 85,-0.08586126,-0.08038772,0.,-0.00034468,0.00001174,0.,0.00294737,-0.
 00703528,0.,-0.00244419,0.00013595,0.,0.00041769,-0.00079596,0.,-0.033
 73324,-0.01097732,0.,-0.00003619,-0.00015054,0.,0.09511373,0.08804995,
 0.,0.,-0.04990769,0.,0.,0.00000009,0.,0.,0.00022606,0.,0.,0.00059909,0
 .,0.,-0.00000700,0.,0.,-0.00136621,0.,0.,-0.00000424,0.,0.,0.04806249,
 -0.10731460,0.04226008,0.09829243,0.00003037,-0.00000410,0.00000966,0.
 00069354,-0.00036526,-0.00099375,0.00012220,-0.00013141,-0.00010067,-0
 .00003853,0.00005336,-0.00000473,-0.00069452,0.00034016,-0.00033364,0.
 00001073,0.00001956,-0.00000003,-0.01373308,0.01144201,0.02616431,0.11
 154656,0.04204907,-0.08016809,-0.07306801,0.00000565,0.00000988,0.0000
 0033,0.00171287,0.00168435,-0.00092829,-0.00001722,-0.00009481,0.00023
 090,-0.00004131,0.00005546,0.00008631,0.01645589,-0.01290581,-0.029395
 95,-0.00000252,-0.00000240,-0.00000182,-0.00459391,0.00404372,0.010606
 20,-0.04714094,0.08867390,0.09825126,-0.07341109,-0.22137374,-0.000032
 05,-0.00000230,0.00000368,0.00015375,0.00036385,0.00002429,-0.00033716
 ,0.00003431,0.00029137,0.00003841,-0.00007733,-0.00003296,-0.00077677,
 0.00009193,0.00098936,-0.00000570,-0.00001667,-0.00000188,-0.00065962,
 0.00129675,0.00089676,-0.10935072,0.08136137,0.23776059,-0.10731460,0.
 04226008,-0.09829243,0.00003037,-0.00000410,-0.00000966,0.00069354,-0.
 00036526,0.00099375,0.00012220,-0.00013141,0.00010067,-0.00003853,0.00
 005336,0.00000473,-0.00069452,0.00034016,0.00033364,0.00001073,0.00001
 956,0.00000003,-0.01373308,0.01144201,-0.02616431,0.00828638,-0.006792
 53,0.01347357,0.11154656,0.04204907,-0.08016809,0.07306801,0.00000565,
 0.00000988,-0.00000033,0.00171287,0.00168435,0.00092829,-0.00001722,-0
 .00009481,-0.00023090,-0.00004131,0.00005546,-0.00008631,0.01645589,-0
 .01290581,0.02939595,-0.00000252,-0.00000240,0.00000182,-0.00459391,0.
 00404372,-0.01060620,-0.00679253,0.00396745,-0.00927799,-0.04714094,0.
 08867390,-0.09825126,0.07341109,-0.22137374,0.00003205,0.00000230,0.00
 000368,-0.00015375,-0.00036385,0.00002429,0.00033716,-0.00003431,0.000
 29138,-0.00003841,0.00007733,-0.00003296,0.00077677,-0.00009193,0.0009
 8936,0.00000570,0.00001667,-0.00000188,0.00065962,-0.00129675,0.000896
 76,-0.01347357,0.00927799,-0.02131273,0.10935072,-0.08136137,0.2377605
 9,0.00003037,-0.00000410,0.00000966,-0.10731460,0.04226008,0.09829243,
 0.00012220,-0.00013141,-0.00010067,0.00069354,-0.00036526,-0.00099375,
 -0.00069452,0.00034016,-0.00033364,-0.00003853,0.00005336,-0.00000473,
 -0.01373308,0.01144201,0.02616431,0.00001073,0.00001956,-0.00000003,-0
 .00000423,0.00000456,-0.00000047,-0.00000651,0.00000505,-0.00000386,0.
 11154656,0.00000565,0.00000988,0.00000033,0.04204907,-0.08016809,-0.07
 306801,-0.00001722,-0.00009481,0.00023090,0.00171287,0.00168435,-0.000
 92829,0.01645589,-0.01290581,-0.02939595,-0.00004131,0.00005546,0.0000
 8631,-0.00459391,0.00404372,0.01060620,-0.00000252,-0.00000240,-0.0000
 0182,0.00000456,0.00000969,0.00000695,0.00000505,-0.00000292,-0.000001
 03,-0.04714094,0.08867390,-0.00003205,-0.00000230,0.00000368,0.0982512
 6,-0.07341109,-0.22137374,-0.00033716,0.00003431,0.00029138,0.00015375
 ,0.00036385,0.00002429,-0.00077677,0.00009193,0.00098936,0.00003841,-0
 .00007733,-0.00003296,-0.00065962,0.00129675,0.00089676,-0.00000570,-0
 .00001667,-0.00000188,-0.00000047,0.00000695,0.00000293,0.00000386,0.0
 0000103,0.00000026,-0.10935072,0.08136137,0.23776059,0.00003037,-0.000
 00410,-0.00000966,-0.10731460,0.04226008,-0.09829243,0.00012220,-0.000
 13141,0.00010067,0.00069354,-0.00036526,0.00099375,-0.00069452,0.00034
 016,0.00033364,-0.00003853,0.00005336,0.00000473,-0.01373308,0.0114420
 1,-0.02616431,0.00001073,0.00001956,0.00000003,-0.00000651,0.00000505,
 0.00000386,-0.00000423,0.00000456,0.00000047,0.00828638,-0.00679253,0.
 01347357,0.11154656,0.00000565,0.00000988,-0.00000033,0.04204907,-0.08
 016809,0.07306801,-0.00001722,-0.00009481,-0.00023090,0.00171287,0.001
 68435,0.00092829,0.01645589,-0.01290581,0.02939595,-0.00004131,0.00005
 546,-0.00008631,-0.00459391,0.00404372,-0.01060620,-0.00000252,-0.0000
 0240,0.00000182,0.00000505,-0.00000292,0.00000103,0.00000456,0.0000096
 9,-0.00000695,-0.00679253,0.00396745,-0.00927799,-0.04714094,0.0886739
 0,0.00003205,0.00000230,0.00000368,-0.09825126,0.07341109,-0.22137374,
 0.00033716,-0.00003431,0.00029137,-0.00015375,-0.00036385,0.00002429,0
 .00077677,-0.00009193,0.00098936,-0.00003841,0.00007733,-0.00003296,0.
 00065962,-0.00129675,0.00089676,0.00000570,0.00001667,-0.00000188,-0.0
 0000386,-0.00000103,0.00000026,0.00000047,-0.00000695,0.00000293,-0.01
 347357,0.00927799,-0.02131273,0.10935072,-0.08136137,0.23776059,0.0002
 1805,-0.00011713,-0.00072728,0.00003809,-0.00001979,-0.00007886,-0.018
 04405,0.00929237,0.02724686,0.00086548,0.00185445,0.00055405,-0.000020
 15,-0.00009980,-0.00027955,-0.10991142,0.04144780,0.09787031,-0.000011
 66,-0.00000505,0.00000103,0.00047931,0.00031086,-0.00039302,0.00093210
 ,-0.00041002,-0.00004198,-0.00017035,0.00011495,0.00019908,-0.00000070
 ,-0.00007464,-0.00001710,0.00000186,-0.00000747,0.00000149,0.12078673,
 0.01686470,-0.01333550,-0.02886589,0.00006839,-0.00000412,-0.00003046,
 -0.00661412,0.00333359,0.01088027,-0.00023144,0.00117277,0.00101984,-0
 .00015146,0.00006580,0.00006107,0.04132468,-0.07562416,-0.06544926,0.0
 0000539,0.00002269,-0.00000472,-0.00051436,0.00135580,0.00002541,-0.00
 005786,-0.00709279,0.00041135,0.00021496,0.00154502,0.00048713,-0.0000
 0078,-0.00002826,-0.00001045,-0.00000246,-0.00000311,0.00000200,-0.042
 88524,0.08554130,-0.00083761,0.00046918,0.00091286,0.00009086,0.000007
 57,-0.00003208,-0.00003549,0.00032369,-0.00001270,-0.00016002,-0.00032
 803,-0.00002194,-0.00016314,0.00033773,0.00033202,0.09815278,-0.065801
 83,-0.21499337,0.00000056,0.00003630,0.00000390,-0.00034059,-0.0005078
 0,0.00005219,-0.00040212,0.00041001,0.00167287,-0.00006005,-0.00044159
 ,0.00086604,0.00000735,0.00002222,0.00002514,0.00000121,0.00000149,-0.
 00000731,-0.10959243,0.07342154,0.23059763,0.00021805,-0.00011713,0.00
 072728,0.00003809,-0.00001979,0.00007886,-0.01804405,0.00929237,-0.027
 24686,0.00086548,0.00185445,-0.00055405,-0.00002016,-0.00009980,0.0002
 7955,-0.10991142,0.04144780,-0.09787031,-0.00001166,-0.00000505,-0.000
 00103,0.00047931,0.00031086,0.00039302,-0.00017035,0.00011495,-0.00019
 908,0.00093210,-0.00041002,0.00004198,0.00000186,-0.00000747,-0.000001
 49,-0.00000070,-0.00007464,0.00001710,0.00866129,-0.00611839,0.0132320
 5,0.12078673,0.01686470,-0.01333550,0.02886589,0.00006839,-0.00000412,
 0.00003046,-0.00661412,0.00333359,-0.01088027,-0.00023143,0.00117277,-
 0.00101984,-0.00015146,0.00006580,-0.00006107,0.04132468,-0.07562416,0
 .06544926,0.00000539,0.00002269,0.00000472,-0.00051437,0.00135579,-0.0
 0002541,0.00021496,0.00154502,-0.00048713,-0.00005786,-0.00709279,-0.0
 0041135,-0.00000246,-0.00000311,-0.00000200,-0.00000078,-0.00002826,0.
 00001045,-0.00611839,0.00367546,-0.00881555,-0.04288524,0.08554130,0.0
 0083761,-0.00046918,0.00091286,-0.00009086,-0.00000757,-0.00003208,0.0
 0003549,-0.00032369,-0.00001270,0.00016002,0.00032803,-0.00002194,0.00
 016314,-0.00033773,0.00033202,-0.09815278,0.06580183,-0.21499337,-0.00
 000056,-0.00003630,0.00000390,0.00034058,0.00050780,0.00005219,0.00006
 005,0.00044159,0.00086604,0.00040212,-0.00041001,0.00167287,-0.0000012
 1,-0.00000149,-0.00000731,-0.00000735,-0.00002222,0.00002514,-0.013232
 05,0.00881555,-0.02238598,0.10959243,-0.07342154,0.23059763,0.00003809
 ,-0.00001979,0.00007886,0.00021805,-0.00011713,0.00072728,0.00086548,0
 .00185445,-0.00055405,-0.01804405,0.00929237,-0.02724686,-0.10991142,0
 .04144780,-0.09787031,-0.00002015,-0.00009980,0.00027955,0.00047931,0.
 00031086,0.00039302,-0.00001166,-0.00000505,-0.00000103,0.00000186,-0.
 00000747,-0.00000149,-0.00000070,-0.00007464,0.00001710,-0.00017035,0.
 00011495,-0.00019908,0.00093210,-0.00041002,0.00004198,-0.00003421,0.0
 0002986,-0.00001784,0.00030957,0.00007949,0.00018481,0.12078673,0.0000
 6839,-0.00000412,0.00003046,0.01686470,-0.01333550,0.02886589,-0.00023
 144,0.00117277,-0.00101984,-0.00661412,0.00333359,-0.01088027,0.041324
 68,-0.07562416,0.06544926,-0.00015146,0.00006580,-0.00006107,-0.000514
 36,0.00135580,-0.00002541,0.00000539,0.00002269,0.00000472,-0.00000246
 ,-0.00000311,-0.00000200,-0.00000078,-0.00002826,0.00001045,0.00021496
 ,0.00154502,-0.00048713,-0.00005786,-0.00709279,-0.00041135,0.00002986
 ,0.00000182,-0.00001016,0.00007949,-0.00010798,0.00010942,-0.04288524,
 0.08554130,-0.00009086,-0.00000757,-0.00003208,0.00083761,-0.00046918,
 0.00091286,0.00016002,0.00032803,-0.00002194,0.00003549,-0.00032369,-0
 .00001270,-0.09815278,0.06580183,-0.21499337,0.00016314,-0.00033773,0.
 00033202,0.00034059,0.00050780,0.00005219,-0.00000056,-0.00003630,0.00
 000390,-0.00000121,-0.00000149,-0.00000731,-0.00000735,-0.00002222,0.0
 0002514,0.00006005,0.00044159,0.00086604,0.00040212,-0.00041001,0.0016
 7287,0.00001784,0.00001016,-0.00002216,0.00018481,0.00010942,-0.000008
 59,0.10959243,-0.07342154,0.23059763,0.00003809,-0.00001979,-0.0000788
 6,0.00021805,-0.00011713,-0.00072728,0.00086548,0.00185445,0.00055405,
 -0.01804405,0.00929237,0.02724686,-0.10991142,0.04144780,0.09787031,-0
 .00002016,-0.00009980,-0.00027955,0.00047931,0.00031086,-0.00039302,-0
 .00001166,-0.00000505,0.00000103,-0.00000070,-0.00007464,-0.00001710,0
 .00000186,-0.00000747,0.00000149,0.00093210,-0.00041002,-0.00004198,-0
 .00017035,0.00011495,0.00019908,0.00030957,0.00007949,-0.00018481,-0.0
 0003421,0.00002986,0.00001784,0.00866129,-0.00611839,-0.01323205,0.120
 78673,0.00006839,-0.00000412,-0.00003046,0.01686470,-0.01333550,-0.028
 86589,-0.00023143,0.00117277,0.00101984,-0.00661412,0.00333359,0.01088
 027,0.04132468,-0.07562416,-0.06544926,-0.00015146,0.00006580,0.000061
 07,-0.00051437,0.00135579,0.00002541,0.00000539,0.00002269,-0.00000472
 ,-0.00000078,-0.00002826,-0.00001045,-0.00000246,-0.00000311,0.0000020
 0,-0.00005786,-0.00709279,0.00041135,0.00021496,0.00154502,0.00048713,
 0.00007949,-0.00010798,-0.00010942,0.00002986,0.00000182,0.00001016,-0
 .00611839,0.00367546,0.00881555,-0.04288524,0.08554130,0.00009086,0.00
 000757,-0.00003208,-0.00083761,0.00046918,0.00091286,-0.00016002,-0.00
 032803,-0.00002194,-0.00003549,0.00032369,-0.00001270,0.09815278,-0.06
 580183,-0.21499337,-0.00016314,0.00033773,0.00033202,-0.00034058,-0.00
 050780,0.00005219,0.00000056,0.00003630,0.00000390,0.00000735,0.000022
 22,0.00002514,0.00000121,0.00000149,-0.00000731,-0.00040212,0.00041001
 ,0.00167287,-0.00006005,-0.00044159,0.00086604,-0.00018481,-0.00010942
 ,-0.00000859,-0.00001784,-0.00001016,-0.00002216,0.01323205,-0.0088155
 5,-0.02238598,-0.10959243,0.07342154,0.23059763,0.00110902,0.00160553,
 0.00034033,0.00012551,-0.00006644,-0.00015471,-0.10859955,0.04067302,0
 .09648304,-0.00068957,0.00041243,0.00019678,0.00057070,-0.00038117,-0.
 00075550,-0.01791631,0.00946043,0.02719208,0.00001031,0.00004359,0.000
 00272,0.00022332,0.00015942,-0.00047305,0.00044639,-0.00106362,-0.0006
 0021,0.00002259,-0.00015727,-0.00006782,-0.00010628,-0.00008030,0.0000
 3285,-0.00002391,0.00003371,-0.00000081,-0.00580020,-0.00273071,-0.000
 21136,0.00121547,0.00064218,-0.00036518,0.00003724,-0.00000981,-0.0000
 6983,0.00044754,0.00008700,0.00008564,0.11998678,-0.00027147,0.0011419
 9,0.00104385,-0.00005914,-0.00005024,0.00027822,0.04071649,-0.07567765
 ,-0.06496989,0.01629496,-0.01371932,-0.02913140,0.00172598,0.00145373,
 -0.00092807,-0.00662811,0.00324980,0.01084390,-0.00009718,0.00001181,0
 .00008911,0.00018307,0.00014297,-0.00008933,0.00019104,0.00002512,-0.0
 0043664,-0.00001822,-0.00002131,0.00005543,-0.00005826,0.00030877,0.00
 018971,0.00004103,-0.00000384,-0.00001978,-0.00282789,-0.00068299,0.00
 003544,0.00062664,0.00018503,-0.00032046,-0.00014367,-0.00002537,0.000
 06005,-0.00104732,0.00000501,0.00068881,-0.04251664,0.08548035,-0.0002
 5679,-0.00017246,0.00008836,-0.00037377,0.00001853,0.00033504,0.096635
 61,-0.06509469,-0.21318428,-0.00033135,0.00002225,0.00001276,0.0002982
 6,0.00031319,-0.00005048,-0.00016222,0.00009550,-0.00008114,-0.0000280
 7,-0.00011407,-0.00001970,-0.00014616,0.00027894,0.00026743,0.00014608
 ,0.00069360,0.00027670,0.00003946,-0.00007431,-0.00004937,0.00003723,0
 .00020474,-0.00001326,0.00001289,0.00001995,-0.00001874,-0.00023522,-0
 .00000648,0.00174796,0.00039651,0.00031908,0.00095739,0.00008037,-0.00
 004514,-0.00002148,-0.00063149,-0.00038370,0.00033761,-0.10851068,0.07
 306546,0.22909242,0.00110902,0.00160553,-0.00034033,0.00012551,-0.0000
 6644,0.00015471,-0.10859955,0.04067302,-0.09648304,-0.00068957,0.00041
 243,-0.00019678,0.00057070,-0.00038118,0.00075550,-0.01791631,0.009460
 43,-0.02719208,0.00001031,0.00004359,-0.00000272,0.00022332,0.00015942
 ,0.00047305,0.00002259,-0.00015727,0.00006782,0.00044639,-0.00106362,0
 .00060021,-0.00002391,0.00003371,0.00000081,-0.00010628,-0.00008030,-0
 .00003285,0.00121547,0.00064218,0.00036518,-0.00580020,-0.00273071,0.0
 0021136,0.00044754,0.00008700,-0.00008564,0.00003724,-0.00000981,0.000
 06983,0.00857596,-0.00603615,0.01323340,0.11998678,-0.00027147,0.00114
 199,-0.00104385,-0.00005914,-0.00005024,-0.00027822,0.04071649,-0.0756
 7765,0.06496989,0.01629496,-0.01371932,0.02913140,0.00172598,0.0014537
 3,0.00092807,-0.00662811,0.00324980,-0.01084390,-0.00009718,0.00001181
 ,-0.00008911,0.00018307,0.00014297,0.00008933,-0.00001822,-0.00002131,
 -0.00005543,0.00019104,0.00002512,0.00043664,0.00004103,-0.00000384,0.
 00001978,-0.00005826,0.00030877,-0.00018971,0.00062664,0.00018503,0.00
 032046,-0.00282789,-0.00068299,-0.00003544,-0.00104732,0.00000501,-0.0
 0068881,-0.00014367,-0.00002537,-0.00006005,-0.00603615,0.00358266,-0.
 00886004,-0.04251664,0.08548035,0.00025679,0.00017246,0.00008836,0.000
 37377,-0.00001853,0.00033504,-0.09663561,0.06509469,-0.21318428,0.0003
 3135,-0.00002225,0.00001276,-0.00029826,-0.00031319,-0.00005048,0.0001
 6222,-0.00009550,-0.00008114,0.00002807,0.00011407,-0.00001970,0.00014
 616,-0.00027894,0.00026743,-0.00003946,0.00007431,-0.00004937,-0.00014
 608,-0.00069360,0.00027670,-0.00001289,-0.00001995,-0.00001874,-0.0000
 3723,-0.00020474,-0.00001326,-0.00039651,-0.00031908,0.00095739,0.0002
 3522,0.00000648,0.00174796,0.00063149,0.00038370,0.00033761,-0.0000803
 7,0.00004514,-0.00002148,-0.01323340,0.00886004,-0.02234851,0.10851068
 ,-0.07306546,0.22909242,0.00012551,-0.00006644,-0.00015471,0.00110902,
 0.00160553,0.00034033,-0.00068957,0.00041243,0.00019678,-0.10859955,0.
 04067302,0.09648304,-0.01791631,0.00946043,0.02719208,0.00057070,-0.00
 038118,-0.00075550,0.00022332,0.00015942,-0.00047305,0.00001031,0.0000
 4359,0.00000272,-0.00010628,-0.00008030,0.00003285,-0.00002391,0.00003
 371,-0.00000081,0.00044639,-0.00106362,-0.00060021,0.00002259,-0.00015
 727,-0.00006782,0.00044754,0.00008700,0.00008564,0.00003724,-0.0000098
 1,-0.00006983,0.00121547,0.00064218,-0.00036518,-0.00580020,-0.0027307
 1,-0.00021136,0.00047419,-0.00016498,-0.00004748,-0.00010919,0.0000897
 9,0.00015659,0.11998678,-0.00005914,-0.00005024,0.00027822,-0.00027147
 ,0.00114199,0.00104385,0.01629496,-0.01371932,-0.02913140,0.04071649,-
 0.07567765,-0.06496989,-0.00662811,0.00324980,0.01084390,0.00172598,0.
 00145373,-0.00092807,0.00018307,0.00014297,-0.00008933,-0.00009718,0.0
 0001181,0.00008911,-0.00005826,0.00030877,0.00018971,0.00004103,-0.000
 00384,-0.00001978,0.00019104,0.00002512,-0.00043664,-0.00001822,-0.000
 02131,0.00005543,-0.00104732,0.00000501,0.00068881,-0.00014367,-0.0000
 2537,0.00006005,0.00062664,0.00018503,-0.00032046,-0.00282789,-0.00068
 299,0.00003544,-0.00016498,-0.00692183,0.00020262,0.00008979,0.0015152
 9,0.00048296,-0.04251664,0.08548035,-0.00037377,0.00001853,0.00033504,
 -0.00025679,-0.00017246,0.00008836,-0.00033135,0.00002225,0.00001276,0
 .09663561,-0.06509469,-0.21318428,-0.00016222,0.00009550,-0.00008114,0
 .00029826,0.00031319,-0.00005048,-0.00014616,0.00027894,0.00026743,-0.
 00002807,-0.00011407,-0.00001970,0.00003723,0.00020474,-0.00001326,0.0
 0001289,0.00001995,-0.00001874,0.00014608,0.00069360,0.00027670,0.0000
 3946,-0.00007431,-0.00004937,-0.00063149,-0.00038370,0.00033761,0.0000
 8037,-0.00004514,-0.00002148,0.00039651,0.00031908,0.00095739,-0.00023
 522,-0.00000648,0.00174796,-0.00004748,0.00020262,0.00171564,-0.000156
 59,-0.00048296,0.00095563,-0.10851068,0.07306546,0.22909242,0.00012551
 ,-0.00006644,0.00015471,0.00110902,0.00160553,-0.00034033,-0.00068957,
 0.00041243,-0.00019678,-0.10859955,0.04067302,-0.09648304,-0.01791631,
 0.00946043,-0.02719208,0.00057070,-0.00038117,0.00075550,0.00022332,0.
 00015942,0.00047305,0.00001031,0.00004359,-0.00000272,-0.00002391,0.00
 003371,0.00000081,-0.00010628,-0.00008030,-0.00003285,0.00002259,-0.00
 015727,0.00006782,0.00044639,-0.00106362,0.00060021,0.00003724,-0.0000
 0981,0.00006983,0.00044754,0.00008700,-0.00008564,-0.00580020,-0.00273
 071,0.00021136,0.00121547,0.00064218,0.00036518,-0.00010919,0.00008979
 ,-0.00015659,0.00047419,-0.00016498,0.00004748,0.00857596,-0.00603615,
 0.01323340,0.11998678,-0.00005914,-0.00005024,-0.00027822,-0.00027147,
 0.00114199,-0.00104385,0.01629496,-0.01371932,0.02913140,0.04071649,-0
 .07567765,0.06496989,-0.00662811,0.00324980,-0.01084390,0.00172598,0.0
 0145373,0.00092807,0.00018307,0.00014297,0.00008933,-0.00009718,0.0000
 1181,-0.00008911,0.00004103,-0.00000384,0.00001978,-0.00005826,0.00030
 877,-0.00018971,-0.00001822,-0.00002131,-0.00005543,0.00019104,0.00002
 512,0.00043664,-0.00014367,-0.00002537,-0.00006005,-0.00104732,0.00000
 501,-0.00068881,-0.00282789,-0.00068299,-0.00003544,0.00062664,0.00018
 503,0.00032046,0.00008979,0.00151529,-0.00048296,-0.00016498,-0.006921
 83,-0.00020262,-0.00603615,0.00358266,-0.00886004,-0.04251664,0.085480
 35,0.00037377,-0.00001853,0.00033504,0.00025679,0.00017246,0.00008836,
 0.00033135,-0.00002225,0.00001276,-0.09663561,0.06509469,-0.21318428,0
 .00016222,-0.00009550,-0.00008114,-0.00029826,-0.00031319,-0.00005048,
 0.00014616,-0.00027894,0.00026743,0.00002807,0.00011407,-0.00001970,-0
 .00001289,-0.00001995,-0.00001874,-0.00003723,-0.00020474,-0.00001326,
 -0.00003946,0.00007431,-0.00004937,-0.00014608,-0.00069360,0.00027670,
 -0.00008037,0.00004514,-0.00002148,0.00063149,0.00038370,0.00033761,0.
 00023522,0.00000648,0.00174796,-0.00039651,-0.00031908,0.00095739,0.00
 015659,0.00048296,0.00095563,0.00004748,-0.00020262,0.00171564,-0.0132
 3340,0.00886004,-0.02234851,0.10851068,-0.07306546,0.22909242\\-0.0000
 4683,-0.00009476,0.,0.00004683,0.00009476,0.,0.00003842,-0.00004402,0.
 ,-0.00003842,0.00004402,0.,-0.00001257,-0.00003548,0.,0.00001257,0.000
 03548,0.,0.00009868,0.00005116,0.,-0.00009868,-0.00005116,0.,0.0000182
 4,0.00000361,-0.00003505,0.00001824,0.00000361,0.00003505,-0.00001824,
 -0.00000361,0.00003505,-0.00001824,-0.00000361,-0.00003505,0.00000048,
 -0.00001543,0.00004810,0.00000048,-0.00001543,-0.00004810,-0.00000048,
 0.00001543,0.00004810,-0.00000048,0.00001543,-0.00004810,-0.00001194,0
 .00001483,-0.00003606,-0.00001194,0.00001483,0.00003606,0.00001194,-0.
 00001483,0.00003606,0.00001194,-0.00001483,-0.00003606\\\@


 AS FAR AS THE LAWS OF MATHEMATICS REFER TO REALITY,
 THEY ARE NOT CERTAIN; AND AS FAR AS THEY ARE CERTAIN,
 THEY DO NOT REFER TO REALITY.

                                         -- ALBERT EINSTEIN
 Job cpu time:  0 days  0 hours  1 minutes 12.4 seconds.
 File lengths (MBytes):  RWF=     20 Int=      0 D2E=      0 Chk=      2 Scr=      1
 Normal termination of Gaussian 09 at Tue Jan 23 15:11:10 2018.
