 Entering Gaussian System, Link 0=g09
 Input=r-2-chlorobutane.inp
 Output=r-2-chlorobutane.log
 Initial command:
 /usr/local/g09/l1.exe /home/g09scr/Gau-28462.inp -scrdir=/home/g09scr/
 Entering Link 1 = /usr/local/g09/l1.exe PID=     28464.
  
 Copyright (c) 1988,1990,1992,1993,1995,1998,2003,2009,2010,
            Gaussian, Inc.  All Rights Reserved.
  
 This is part of the Gaussian(R) 09 program.  It is based on
 the Gaussian(R) 03 system (copyright 2003, Gaussian, Inc.),
 the Gaussian(R) 98 system (copyright 1998, Gaussian, Inc.),
 the Gaussian(R) 94 system (copyright 1995, Gaussian, Inc.),
 the Gaussian 92(TM) system (copyright 1992, Gaussian, Inc.),
 the Gaussian 90(TM) system (copyright 1990, Gaussian, Inc.),
 the Gaussian 88(TM) system (copyright 1988, Gaussian, Inc.),
 the Gaussian 86(TM) system (copyright 1986, Carnegie Mellon
 University), and the Gaussian 82(TM) system (copyright 1983,
 Carnegie Mellon University). Gaussian is a federally registered
 trademark of Gaussian, Inc.
  
 This software contains proprietary and confidential information,
 including trade secrets, belonging to Gaussian, Inc.
  
 This software is provided under written license and may be
 used, copied, transmitted, or stored only in accord with that
 written license.
  
 The following legend is applicable only to US Government
 contracts under FAR:
  
                    RESTRICTED RIGHTS LEGEND
  
 Use, reproduction and disclosure by the US Government is
 subject to restrictions as set forth in subparagraphs (a)
 and (c) of the Commercial Computer Software - Restricted
 Rights clause in FAR 52.227-19.
  
 Gaussian, Inc.
 340 Quinnipiac St., Bldg. 40, Wallingford CT 06492
  
  
 ---------------------------------------------------------------
 Warning -- This program may not be used in any manner that
 competes with the business of Gaussian, Inc. or will provide
 assistance to any competitor of Gaussian, Inc.  The licensee
 of this program is prohibited from giving any competitor of
 Gaussian, Inc. access to this program.  By using this program,
 the user acknowledges that Gaussian, Inc. is engaged in the
 business of creating and licensing software in the field of
 computational chemistry and represents and warrants to the
 licensee that it is not a competitor of Gaussian, Inc. and that
 it will not use this program in any manner prohibited above.
 ---------------------------------------------------------------
  

 Cite this work as:
 Gaussian 09, Revision B.01,
 M. J. Frisch, G. W. Trucks, H. B. Schlegel, G. E. Scuseria, 
 M. A. Robb, J. R. Cheeseman, G. Scalmani, V. Barone, B. Mennucci, 
 G. A. Petersson, H. Nakatsuji, M. Caricato, X. Li, H. P. Hratchian, 
 A. F. Izmaylov, J. Bloino, G. Zheng, J. L. Sonnenberg, M. Hada, 
 M. Ehara, K. Toyota, R. Fukuda, J. Hasegawa, M. Ishida, T. Nakajima, 
 Y. Honda, O. Kitao, H. Nakai, T. Vreven, J. A. Montgomery, Jr., 
 J. E. Peralta, F. Ogliaro, M. Bearpark, J. J. Heyd, E. Brothers, 
 K. N. Kudin, V. N. Staroverov, T. Keith, R. Kobayashi, J. Normand, 
 K. Raghavachari, A. Rendell, J. C. Burant, S. S. Iyengar, J. Tomasi, 
 M. Cossi, N. Rega, J. M. Millam, M. Klene, J. E. Knox, J. B. Cross, 
 V. Bakken, C. Adamo, J. Jaramillo, R. Gomperts, R. E. Stratmann, 
 O. Yazyev, A. J. Austin, R. Cammi, C. Pomelli, J. W. Ochterski, 
 R. L. Martin, K. Morokuma, V. G. Zakrzewski, G. A. Voth, 
 P. Salvador, J. J. Dannenberg, S. Dapprich, A. D. Daniels, 
 O. Farkas, J. B. Foresman, J. V. Ortiz, J. Cioslowski, 
 and D. J. Fox, Gaussian, Inc., Wallingford CT, 2010.
 
 ******************************************
 Gaussian 09:  EM64L-G09RevB.01 12-Aug-2010
                 4-Jan-2018 
 ******************************************
 %nproc=4
 Will use up to    4 processors via shared memory.
 %mem=60gb
 -----------------------
 #B3LYP/6-31G* fopt test
 -----------------------
 1/14=-1,18=20,19=15,26=3,38=1/1,3;
 2/9=110,12=2,14=103,17=6,18=5,40=1/2;
 3/5=1,6=6,7=1,11=2,16=1,25=1,30=1,71=1,74=-5/1,2,3;
 4//1;
 5/5=2,38=5/2;
 6/7=2,8=2,9=2,10=2,28=1/1;
 7//1,2,3,16;
 1/14=-1,18=20,19=15/3(2);
 2/9=110/2;
 99//99;
 2/9=110/2;
 3/5=1,6=6,7=1,11=2,16=1,25=1,30=1,71=1,74=-5/1,2,3;
 4/5=5,16=3/1;
 5/5=2,38=5/2;
 7//1,2,3,16;
 1/14=-1,18=20,19=15/3(-5);
 2/9=110/2;
 6/7=2,8=2,9=2,10=2,19=2,28=1/1;
 99/9=1/99;
 ------------------------------------------
 AsymmetricEnantiomers/r-2-chlorobutane.xyz
 ------------------------------------------
 Symbolic Z-matrix:
 Charge =  0 Multiplicity = 1
 C                    -0.293     0.411     0.364 
 C                    -0.323     0.436     1.914 
 H                     0.187     1.339     2.287 
 H                     0.189    -0.45      2.321 
 H                    -1.361     0.445     2.281 
 Cl                    1.394     0.458    -0.174 
 H                    -0.793     1.316    -0.018 
 C                    -1.008    -0.852    -0.19 
 H                    -0.481    -1.755     0.16 
 C                    -1.067    -0.86     -1.74 
 H                    -2.04     -0.884     0.2 
 H                    -0.055    -0.881    -2.173 
 H                    -1.591     0.036    -2.108 
 H                    -1.611    -1.752    -2.091 
 

 GradGradGradGradGradGradGradGradGradGradGradGradGradGradGradGradGradGrad
 Berny optimization.
 Initialization pass.
                           ----------------------------
                           !    Initial Parameters    !
                           ! (Angstroms and Degrees)  !
 --------------------------                            --------------------------
 ! Name  Definition              Value          Derivative Info.                !
 --------------------------------------------------------------------------------
 ! R1    R(1,2)                  1.5505         estimate D2E/DX2                !
 ! R2    R(1,6)                  1.7713         estimate D2E/DX2                !
 ! R3    R(1,7)                  1.1022         estimate D2E/DX2                !
 ! R4    R(1,8)                  1.5535         estimate D2E/DX2                !
 ! R5    R(2,3)                  1.1021         estimate D2E/DX2                !
 ! R6    R(2,4)                  1.1013         estimate D2E/DX2                !
 ! R7    R(2,5)                  1.101          estimate D2E/DX2                !
 ! R8    R(8,9)                  1.1026         estimate D2E/DX2                !
 ! R9    R(8,10)                 1.5511         estimate D2E/DX2                !
 ! R10   R(8,11)                 1.1037         estimate D2E/DX2                !
 ! R11   R(10,12)                1.1009         estimate D2E/DX2                !
 ! R12   R(10,13)                1.1013         estimate D2E/DX2                !
 ! R13   R(10,14)                1.1022         estimate D2E/DX2                !
 ! A1    A(2,1,6)              108.7615         estimate D2E/DX2                !
 ! A2    A(2,1,7)              108.9316         estimate D2E/DX2                !
 ! A3    A(2,1,8)              111.1437         estimate D2E/DX2                !
 ! A4    A(6,1,7)              107.7567         estimate D2E/DX2                !
 ! A5    A(6,1,8)              110.5853         estimate D2E/DX2                !
 ! A6    A(7,1,8)              109.5817         estimate D2E/DX2                !
 ! A7    A(1,2,3)              110.0349         estimate D2E/DX2                !
 ! A8    A(1,2,4)              110.3338         estimate D2E/DX2                !
 ! A9    A(1,2,5)              110.5852         estimate D2E/DX2                !
 ! A10   A(3,2,4)              108.6001         estimate D2E/DX2                !
 ! A11   A(3,2,5)              108.467          estimate D2E/DX2                !
 ! A12   A(4,2,5)              108.7657         estimate D2E/DX2                !
 ! A13   A(1,8,9)              109.4304         estimate D2E/DX2                !
 ! A14   A(1,8,10)             112.2132         estimate D2E/DX2                !
 ! A15   A(1,8,11)             109.1423         estimate D2E/DX2                !
 ! A16   A(9,8,10)             109.3395         estimate D2E/DX2                !
 ! A17   A(9,8,11)             108.1202         estimate D2E/DX2                !
 ! A18   A(10,8,11)            108.5047         estimate D2E/DX2                !
 ! A19   A(8,10,12)            110.9863         estimate D2E/DX2                !
 ! A20   A(8,10,13)            110.3536         estimate D2E/DX2                !
 ! A21   A(8,10,14)            109.9483         estimate D2E/DX2                !
 ! A22   A(12,10,13)           108.7516         estimate D2E/DX2                !
 ! A23   A(12,10,14)           108.2405         estimate D2E/DX2                !
 ! A24   A(13,10,14)           108.4931         estimate D2E/DX2                !
 ! D1    D(6,1,2,3)             58.1173         estimate D2E/DX2                !
 ! D2    D(6,1,2,4)            -61.6981         estimate D2E/DX2                !
 ! D3    D(6,1,2,5)            177.9267         estimate D2E/DX2                !
 ! D4    D(7,1,2,3)            -59.0775         estimate D2E/DX2                !
 ! D5    D(7,1,2,4)           -178.8928         estimate D2E/DX2                !
 ! D6    D(7,1,2,5)             60.7319         estimate D2E/DX2                !
 ! D7    D(8,1,2,3)           -179.9108         estimate D2E/DX2                !
 ! D8    D(8,1,2,4)             60.2738         estimate D2E/DX2                !
 ! D9    D(8,1,2,5)            -60.1014         estimate D2E/DX2                !
 ! D10   D(2,1,8,9)            -61.8557         estimate D2E/DX2                !
 ! D11   D(2,1,8,10)           176.5858         estimate D2E/DX2                !
 ! D12   D(2,1,8,11)            56.2786         estimate D2E/DX2                !
 ! D13   D(6,1,8,9)             59.0495         estimate D2E/DX2                !
 ! D14   D(6,1,8,10)           -62.509          estimate D2E/DX2                !
 ! D15   D(6,1,8,11)           177.1838         estimate D2E/DX2                !
 ! D16   D(7,1,8,9)            177.6943         estimate D2E/DX2                !
 ! D17   D(7,1,8,10)            56.1359         estimate D2E/DX2                !
 ! D18   D(7,1,8,11)           -64.1714         estimate D2E/DX2                !
 ! D19   D(1,8,10,12)           62.2319         estimate D2E/DX2                !
 ! D20   D(1,8,10,13)          -58.401          estimate D2E/DX2                !
 ! D21   D(1,8,10,14)         -178.0412         estimate D2E/DX2                !
 ! D22   D(9,8,10,12)          -59.3785         estimate D2E/DX2                !
 ! D23   D(9,8,10,13)          179.9886         estimate D2E/DX2                !
 ! D24   D(9,8,10,14)           60.3484         estimate D2E/DX2                !
 ! D25   D(11,8,10,12)        -177.0917         estimate D2E/DX2                !
 ! D26   D(11,8,10,13)          62.2754         estimate D2E/DX2                !
 ! D27   D(11,8,10,14)         -57.3649         estimate D2E/DX2                !
 --------------------------------------------------------------------------------
 Trust Radius=3.00D-01 FncErr=1.00D-07 GrdErr=1.00D-06
 Number of steps in this run=     74 maximum allowed number of steps=    100.
 GradGradGradGradGradGradGradGradGradGradGradGradGradGradGradGradGradGrad

                          Input orientation:                          
 ---------------------------------------------------------------------
 Center     Atomic      Atomic             Coordinates (Angstroms)
 Number     Number       Type             X           Y           Z
 ---------------------------------------------------------------------
      1          6           0       -0.293000    0.411000    0.364000
      2          6           0       -0.323000    0.436000    1.914000
      3          1           0        0.187000    1.339000    2.287000
      4          1           0        0.189000   -0.450000    2.321000
      5          1           0       -1.361000    0.445000    2.281000
      6         17           0        1.394000    0.458000   -0.174000
      7          1           0       -0.793000    1.316000   -0.018000
      8          6           0       -1.008000   -0.852000   -0.190000
      9          1           0       -0.481000   -1.755000    0.160000
     10          6           0       -1.067000   -0.860000   -1.740000
     11          1           0       -2.040000   -0.884000    0.200000
     12          1           0       -0.055000   -0.881000   -2.173000
     13          1           0       -1.591000    0.036000   -2.108000
     14          1           0       -1.611000   -1.752000   -2.091000
 ---------------------------------------------------------------------
                    Distance matrix (angstroms):
                    1          2          3          4          5
     1  C    0.000000
     2  C    1.550492   0.000000
     3  H    2.188496   1.102106   0.000000
     4  H    2.191687   1.101267   1.789324   0.000000
     5  H    2.194691   1.101006   1.787617   1.790286   0.000000
     6  Cl   1.771333   2.703390   2.879155   2.915736   3.690152
     7  H    1.102247   2.174379   2.504786   3.090955   2.523225
     8  C    1.553483   2.560270   3.516253   2.810611   2.812945
     9  H    2.183693   2.811043   3.813553   2.611866   3.180101
    10  C    2.577078   3.947767   4.756558   4.270522   4.237676
    11  H    2.180809   2.761935   3.775821   3.107320   2.560829
    12  H    2.856970   4.302311   4.987842   4.521209   4.827217
    13  H    2.817129   4.236072   4.916820   4.797983   4.414012
    14  H    3.527424   4.741974   5.652784   4.939732   4.899356
                    6          7          8          9         10
     6  Cl   0.000000
     7  H    2.354457   0.000000
     8  C    2.736048   2.185414   0.000000
     9  H    2.919683   3.091936   1.102560   0.000000
    10  C    3.200938   2.788429   1.551143   2.180463   0.000000
    11  H    3.705833   2.538215   1.103697   1.786259   2.170462
    12  H    2.808651   3.164724   2.200304   2.527497   1.100942
    13  H    3.581713   2.577461   2.192523   3.095740   1.101279
    14  H    4.193926   3.791975   2.188015   2.518712   1.102180
                   11         12         13         14
    11  H    0.000000
    12  H    3.093762   0.000000
    13  H    2.524850   1.790087   0.000000
    14  H    2.487196   1.785077   1.788193   0.000000
 Stoichiometry    C4H9Cl
 Framework group  C1[X(C4H9Cl)]
 Deg. of freedom    36
 Full point group                 C1      NOp   1
 Largest Abelian subgroup         C1      NOp   1
 Largest concise Abelian subgroup C1      NOp   1
                         Standard orientation:                         
 ---------------------------------------------------------------------
 Center     Atomic      Atomic             Coordinates (Angstroms)
 Number     Number       Type             X           Y           Z
 ---------------------------------------------------------------------
      1          6           0       -0.295142    0.399468    0.374875
      2          6           0       -1.416035    1.397525   -0.014363
      3          1           0       -2.357075    1.123853    0.489806
      4          1           0       -1.582773    1.380276   -1.102797
      5          1           0       -1.144311    2.421277    0.286157
      6         17           0       -0.806765   -1.235617   -0.074969
      7          1           0       -0.161320    0.420816    1.468761
      8          6           0        1.045389    0.763140   -0.320848
      9          1           0        0.919803    0.700694   -1.414451
     10          6           0        2.205170   -0.169147    0.117094
     11          1           0        1.315614    1.802245   -0.065140
     12          1           0        2.000314   -1.213105   -0.166207
     13          1           0        2.345388   -0.119431    1.208278
     14          1           0        3.143078    0.142942   -0.370482
 ---------------------------------------------------------------------
 Rotational constants (GHZ):      4.6116059      3.1128935      2.0164980
 Standard basis: 6-31G(d) (6D, 7F)
 There are    97 symmetry adapted basis functions of A   symmetry.
 Integral buffers will be    131072 words long.
 Raffenetti 2 integral format.
 Two-electron integral symmetry is turned on.
    97 basis functions,   200 primitive gaussians,    97 cartesian basis functions
    25 alpha electrons       25 beta electrons
       nuclear repulsion energy       233.4963872540 Hartrees.
 NAtoms=   14 NActive=   14 NUniq=   14 SFac= 1.00D+00 NAtFMM=   50 NAOKFM=F Big=F
 One-electron integrals computed using PRISM.
 NBasis=    97 RedAO= T  NBF=    97
 NBsUse=    97 1.00D-06 NBFU=    97
 Harris functional with IExCor=  402 diagonalized for initial guess.
 ExpMin= 1.43D-01 ExpMax= 2.52D+04 ExpMxC= 3.78D+03 IAcc=1 IRadAn=         1 AccDes= 0.00D+00
 HarFok:  IExCor=  402 AccDes= 0.00D+00 IRadAn=         1 IDoV= 1
 ScaDFX=  1.000000  1.000000  1.000000  1.000000
 FoFCou: FMM=F IPFlag=           0 FMFlag=      100000 FMFlg1=           0
         NFxFlg=           0 DoJE=T BraDBF=F KetDBF=T FulRan=T
         Omega=  0.000000  0.000000  1.000000  0.000000  0.000000 ICntrl=     500 IOpCl=  0
         NMat0=    1 NMatS0=    1 NMatT0=    0 NMatD0=    1 NMtDS0=    0 NMtDT0=    0
         I1Cent=           4 NGrid=           0.
 Petite list used in FoFCou.
 Initial guess orbital symmetries:
       Occupied  (A) (A) (A) (A) (A) (A) (A) (A) (A) (A) (A) (A)
                 (A) (A) (A) (A) (A) (A) (A) (A) (A) (A) (A) (A)
                 (A)
       Virtual   (A) (A) (A) (A) (A) (A) (A) (A) (A) (A) (A) (A)
                 (A) (A) (A) (A) (A) (A) (A) (A) (A) (A) (A) (A)
                 (A) (A) (A) (A) (A) (A) (A) (A) (A) (A) (A) (A)
                 (A) (A) (A) (A) (A) (A) (A) (A) (A) (A) (A) (A)
                 (A) (A) (A) (A) (A) (A) (A) (A) (A) (A) (A) (A)
                 (A) (A) (A) (A) (A) (A) (A) (A) (A) (A) (A) (A)
 The electronic state of the initial guess is 1-A.
 Requested convergence on RMS density matrix=1.00D-08 within 128 cycles.
 Requested convergence on MAX density matrix=1.00D-06.
 Requested convergence on             energy=1.00D-06.
 No special actions if energy rises.
 Keep R1 ints in memory in canonical form, NReq=12379521.
 Integral accuracy reduced to 1.0D-05 until final iterations.
 Initial convergence to 1.0D-05 achieved.  Increase integral accuracy.
 SCF Done:  E(RB3LYP) =  -618.053928244     A.U. after   12 cycles
             Convg  =    0.7294D-08             -V/T =  2.0051

 **********************************************************************

            Population analysis using the SCF density.

 **********************************************************************

 Orbital symmetries:
       Occupied  (A) (A) (A) (A) (A) (A) (A) (A) (A) (A) (A) (A)
                 (A) (A) (A) (A) (A) (A) (A) (A) (A) (A) (A) (A)
                 (A)
       Virtual   (A) (A) (A) (A) (A) (A) (A) (A) (A) (A) (A) (A)
                 (A) (A) (A) (A) (A) (A) (A) (A) (A) (A) (A) (A)
                 (A) (A) (A) (A) (A) (A) (A) (A) (A) (A) (A) (A)
                 (A) (A) (A) (A) (A) (A) (A) (A) (A) (A) (A) (A)
                 (A) (A) (A) (A) (A) (A) (A) (A) (A) (A) (A) (A)
                 (A) (A) (A) (A) (A) (A) (A) (A) (A) (A) (A) (A)
 The electronic state is 1-A.
 Alpha  occ. eigenvalues -- -101.52747 -10.24910 -10.19705 -10.18995 -10.17907
 Alpha  occ. eigenvalues --   -9.44481  -7.20843  -7.19902  -7.19893  -0.86649
 Alpha  occ. eigenvalues --   -0.76430  -0.72433  -0.63455  -0.57723  -0.47831
 Alpha  occ. eigenvalues --   -0.44515  -0.43253  -0.42119  -0.38615  -0.37250
 Alpha  occ. eigenvalues --   -0.35414  -0.34645  -0.34217  -0.28978  -0.28765
 Alpha virt. eigenvalues --    0.04535   0.08848   0.11792   0.12316   0.15381
 Alpha virt. eigenvalues --    0.15956   0.17036   0.17542   0.17646   0.19144
 Alpha virt. eigenvalues --    0.21395   0.22250   0.23657   0.39939   0.44091
 Alpha virt. eigenvalues --    0.46285   0.48343   0.49362   0.51198   0.55009
 Alpha virt. eigenvalues --    0.56675   0.58655   0.61307   0.62434   0.64517
 Alpha virt. eigenvalues --    0.70517   0.73499   0.77426   0.82747   0.85309
 Alpha virt. eigenvalues --    0.87450   0.89039   0.89120   0.89826   0.91033
 Alpha virt. eigenvalues --    0.91820   0.92680   0.96386   0.96950   0.97786
 Alpha virt. eigenvalues --    0.99465   1.04368   1.10410   1.16555   1.37063
 Alpha virt. eigenvalues --    1.43809   1.44494   1.50369   1.62722   1.67604
 Alpha virt. eigenvalues --    1.83732   1.85069   1.86975   1.93434   1.96559
 Alpha virt. eigenvalues --    1.98478   2.04490   2.14728   2.21227   2.23614
 Alpha virt. eigenvalues --    2.27364   2.33248   2.36881   2.37417   2.51334
 Alpha virt. eigenvalues --    2.62707   2.71898   4.08117   4.21666   4.28222
 Alpha virt. eigenvalues --    4.36922   4.49669
          Condensed to atoms (all electrons):
              1          2          3          4          5          6
     1  C    5.090957   0.355020  -0.030771  -0.035321  -0.026470   0.237452
     2  C    0.355020   5.133020   0.372175   0.376545   0.358948  -0.069692
     3  H   -0.030771   0.372175   0.551624  -0.027769  -0.028394   0.000182
     4  H   -0.035321   0.376545  -0.027769   0.548010  -0.028010   0.000295
     5  H   -0.026470   0.358948  -0.028394  -0.028010   0.569842   0.005399
     6  Cl   0.237452  -0.069692   0.000182   0.000295   0.005399  17.013090
     7  H    0.371067  -0.043544  -0.003140   0.004886  -0.001461  -0.051495
     8  C    0.360202  -0.045807   0.004431  -0.005244  -0.002602  -0.065017
     9  H   -0.039775  -0.003863  -0.000059   0.004436  -0.000028  -0.000063
    10  C   -0.046090   0.004245  -0.000146   0.000014  -0.000038  -0.007994
    11  H   -0.031706  -0.003134  -0.000026  -0.000093   0.002888   0.005198
    12  H   -0.006353   0.000098   0.000003   0.000004  -0.000005   0.009210
    13  H   -0.004941   0.000046   0.000000   0.000007   0.000001  -0.000027
    14  H    0.004416  -0.000121   0.000002   0.000002  -0.000006   0.000024
              7          8          9         10         11         12
     1  C    0.371067   0.360202  -0.039775  -0.046090  -0.031706  -0.006353
     2  C   -0.043544  -0.045807  -0.003863   0.004245  -0.003134   0.000098
     3  H   -0.003140   0.004431  -0.000059  -0.000146  -0.000026   0.000003
     4  H    0.004886  -0.005244   0.004436   0.000014  -0.000093   0.000004
     5  H   -0.001461  -0.002602  -0.000028  -0.000038   0.002888  -0.000005
     6  Cl  -0.051495  -0.065017  -0.000063  -0.007994   0.005198   0.009210
     7  H    0.587732  -0.044732   0.005376  -0.003910  -0.001811  -0.000062
     8  C   -0.044732   5.031388   0.374685   0.369717   0.364679  -0.031605
     9  H    0.005376   0.374685   0.578265  -0.036364  -0.032910  -0.003707
    10  C   -0.003910   0.369717  -0.036364   5.078001  -0.037852   0.379798
    11  H   -0.001811   0.364679  -0.032910  -0.037852   0.593844   0.004499
    12  H   -0.000062  -0.031605  -0.003707   0.379798   0.004499   0.535968
    13  H    0.005173  -0.036500   0.004788   0.376505  -0.003441  -0.029147
    14  H   -0.000045  -0.028725  -0.002503   0.370946  -0.002819  -0.028393
             13         14
     1  C   -0.004941   0.004416
     2  C    0.000046  -0.000121
     3  H    0.000000   0.000002
     4  H    0.000007   0.000002
     5  H    0.000001  -0.000006
     6  Cl  -0.000027   0.000024
     7  H    0.005173  -0.000045
     8  C   -0.036500  -0.028725
     9  H    0.004788  -0.002503
    10  C    0.376505   0.370946
    11  H   -0.003441  -0.002819
    12  H   -0.029147  -0.028393
    13  H    0.575704  -0.029974
    14  H   -0.029974   0.573243
 Mulliken atomic charges:
              1
     1  C   -0.197688
     2  C   -0.433937
     3  H    0.161888
     4  H    0.162239
     5  H    0.149935
     6  Cl  -0.076561
     7  H    0.175967
     8  C   -0.244870
     9  H    0.151724
    10  C   -0.446833
    11  H    0.142684
    12  H    0.169691
    13  H    0.141804
    14  H    0.143955
 Sum of Mulliken atomic charges =   0.00000
 Mulliken charges with hydrogens summed into heavy atoms:
              1
     1  C   -0.021721
     2  C    0.040126
     6  Cl  -0.076561
     8  C    0.049538
    10  C    0.008618
 Sum of Mulliken charges with hydrogens summed into heavy atoms =   0.00000
 Electronic spatial extent (au):  <R**2>=            647.0192
 Charge=              0.0000 electrons
 Dipole moment (field-independent basis, Debye):
    X=              0.6454    Y=              1.8518    Z=              0.3569  Tot=              1.9932
 Quadrupole moment (field-independent basis, Debye-Ang):
   XX=            -39.8173   YY=            -40.1835   ZZ=            -38.9397
   XY=             -0.9682   XZ=             -0.3375   YZ=              0.3881
 Traceless Quadrupole moment (field-independent basis, Debye-Ang):
   XX=             -0.1705   YY=             -0.5367   ZZ=              0.7071
   XY=             -0.9682   XZ=             -0.3375   YZ=              0.3881
 Octapole moment (field-independent basis, Debye-Ang**2):
  XXX=             -3.2199  YYY=             -3.9069  ZZZ=              0.4822  XYY=             -0.7119
  XXY=              0.2201  XXZ=             -0.4652  XZZ=             -0.9538  YZZ=             -0.5758
  YYZ=             -0.5275  XYZ=             -0.1886
 Hexadecapole moment (field-independent basis, Debye-Ang**3):
 XXXX=           -481.9305 YYYY=           -296.1158 ZZZZ=            -78.3843 XXXY=              5.4076
 XXXZ=             -5.0695 YYYX=              7.2350 YYYZ=              5.2597 ZZZX=              1.4111
 ZZZY=             -0.3326 XXYY=           -132.3025 XXZZ=            -93.2732 YYZZ=            -66.2549
 XXYZ=              0.6454 YYXZ=              0.8105 ZZXY=              0.7296
 N-N= 2.334963872540D+02 E-N=-1.925069059037D+03  KE= 6.149365355505D+02
 Calling FoFJK, ICntrl=      2127 FMM=F ISym2X=0 I1Cent= 0 IOpClX= 0 NMat=1 NMatS=1 NMatT=0.
 ***** Axes restored to original set *****
 -------------------------------------------------------------------
 Center     Atomic                   Forces (Hartrees/Bohr)
 Number     Number              X              Y              Z
 -------------------------------------------------------------------
      1        6          -0.030116932   -0.010880616    0.020997286
      2        6           0.003184973    0.003611263   -0.005481726
      3        1          -0.002413069   -0.004699676   -0.000300685
      4        1          -0.002136937    0.003615947   -0.001348969
      5        1           0.002608622   -0.000254797   -0.002185484
      6       17           0.019427845    0.002886494   -0.007460514
      7        1           0.004343698   -0.003875494   -0.000662349
      8        6           0.004906313    0.006438225   -0.013584080
      9        1          -0.002348155    0.003886023    0.001078933
     10        6          -0.000936931   -0.003855963    0.006116435
     11        1           0.004911919    0.001587189    0.001782713
     12        1          -0.004992055    0.000554682    0.001317298
     13        1           0.001713170   -0.003177734   -0.000354818
     14        1           0.001847540    0.004164457    0.000085960
 -------------------------------------------------------------------
 Cartesian Forces:  Max     0.030116932 RMS     0.007668892

 GradGradGradGradGradGradGradGradGradGradGradGradGradGradGradGradGradGrad
 Berny optimization.
 Internal  Forces:  Max     0.020843706 RMS     0.003953756
 Search for a local minimum.
 Step number   1 out of a maximum of   74
 All quantities printed in internal units (Hartrees-Bohrs-Radians)
 Mixed Optimization -- RFO/linear search
 Second derivative matrix not updated -- first step.
 ITU=  0
     Eigenvalues ---    0.00230   0.00230   0.00230   0.03524   0.04362
     Eigenvalues ---    0.04792   0.05029   0.05480   0.05527   0.05590
     Eigenvalues ---    0.05594   0.08139   0.08996   0.12076   0.16000
     Eigenvalues ---    0.16000   0.16000   0.16000   0.16000   0.16000
     Eigenvalues ---    0.16516   0.21960   0.23267   0.27357   0.27554
     Eigenvalues ---    0.27609   0.28512   0.33277   0.33401   0.33435
     Eigenvalues ---    0.33442   0.33450   0.33541   0.33542   0.33571
     Eigenvalues ---    0.33578
 RFO step:  Lambda=-4.38222165D-03 EMin= 2.30000000D-03
 Linear search not attempted -- first point.
 Iteration  1 RMS(Cart)=  0.03834672 RMS(Int)=  0.00074503
 Iteration  2 RMS(Cart)=  0.00106353 RMS(Int)=  0.00026535
 Iteration  3 RMS(Cart)=  0.00000051 RMS(Int)=  0.00026535
 Variable       Old X    -DE/DX   Delta X   Delta X   Delta X     New X
                                 (Linear)    (Quad)   (Total)
    R1        2.93000  -0.00930   0.00000  -0.03314  -0.03314   2.89686
    R2        3.34734   0.02084   0.00000   0.07200   0.07200   3.41933
    R3        2.08295  -0.00492   0.00000  -0.01453  -0.01453   2.06841
    R4        2.93566  -0.00889   0.00000  -0.03199  -0.03199   2.90366
    R5        2.08268  -0.00507   0.00000  -0.01497  -0.01497   2.06771
    R6        2.08109  -0.00440   0.00000  -0.01295  -0.01295   2.06815
    R7        2.08060  -0.00319   0.00000  -0.00937  -0.00937   2.07123
    R8        2.08354  -0.00396   0.00000  -0.01171  -0.01171   2.07183
    R9        2.93124  -0.00705   0.00000  -0.02519  -0.02519   2.90604
   R10        2.08569  -0.00401   0.00000  -0.01190  -0.01190   2.07379
   R11        2.08048  -0.00511   0.00000  -0.01504  -0.01504   2.06544
   R12        2.08112  -0.00328   0.00000  -0.00965  -0.00965   2.07146
   R13        2.08282  -0.00431   0.00000  -0.01273  -0.01273   2.07009
    A1        1.89825   0.00009   0.00000   0.01172   0.01133   1.90957
    A2        1.90122   0.00021   0.00000   0.00288   0.00300   1.90422
    A3        1.93982   0.00207   0.00000   0.01989   0.01962   1.95944
    A4        1.88071  -0.00160   0.00000  -0.03455  -0.03450   1.84621
    A5        1.93008   0.00051   0.00000   0.01174   0.01130   1.94138
    A6        1.91256  -0.00139   0.00000  -0.01332  -0.01333   1.89923
    A7        1.92047   0.00257   0.00000   0.01809   0.01809   1.93856
    A8        1.92569   0.00032   0.00000   0.00136   0.00130   1.92699
    A9        1.93008  -0.00227   0.00000  -0.01567  -0.01566   1.91441
   A10        1.89543  -0.00105   0.00000  -0.00273  -0.00281   1.89262
   A11        1.89311  -0.00004   0.00000   0.00089   0.00096   1.89407
   A12        1.89832   0.00045   0.00000  -0.00195  -0.00200   1.89632
   A13        1.90992  -0.00321   0.00000  -0.01409  -0.01520   1.89472
   A14        1.95849   0.00847   0.00000   0.04357   0.04344   2.00193
   A15        1.90489  -0.00495   0.00000  -0.04128  -0.04165   1.86324
   A16        1.90834  -0.00089   0.00000   0.01725   0.01715   1.92548
   A17        1.88705   0.00084   0.00000  -0.01508  -0.01584   1.87121
   A18        1.89376  -0.00048   0.00000   0.00762   0.00829   1.90206
   A19        1.93708   0.00046   0.00000   0.00298   0.00296   1.94003
   A20        1.92603   0.00166   0.00000   0.00906   0.00904   1.93507
   A21        1.91896   0.00158   0.00000   0.01046   0.01042   1.92938
   A22        1.89807  -0.00131   0.00000  -0.00957  -0.00957   1.88850
   A23        1.88915  -0.00082   0.00000  -0.00303  -0.00306   1.88609
   A24        1.89356  -0.00169   0.00000  -0.01065  -0.01070   1.88287
    D1        1.01434  -0.00115   0.00000  -0.02303  -0.02309   0.99125
    D2       -1.07683  -0.00169   0.00000  -0.03201  -0.03211  -1.10895
    D3        3.10541  -0.00099   0.00000  -0.02028  -0.02041   3.08500
    D4       -1.03110   0.00060   0.00000   0.01009   0.01017  -1.02092
    D5       -3.12227   0.00006   0.00000   0.00111   0.00115  -3.12112
    D6        1.05997   0.00076   0.00000   0.01284   0.01285   1.07282
    D7       -3.14004   0.00088   0.00000   0.01223   0.01233  -3.12771
    D8        1.05198   0.00034   0.00000   0.00325   0.00330   1.05528
    D9       -1.04897   0.00104   0.00000   0.01499   0.01500  -1.03397
   D10       -1.07959   0.00135   0.00000  -0.01794  -0.01840  -1.09799
   D11        3.08200  -0.00091   0.00000  -0.05897  -0.05921   3.02280
   D12        0.98225  -0.00239   0.00000  -0.06856  -0.06817   0.91407
   D13        1.03061   0.00320   0.00000   0.01813   0.01783   1.04844
   D14       -1.09099   0.00094   0.00000  -0.02291  -0.02297  -1.11396
   D15        3.09244  -0.00054   0.00000  -0.03249  -0.03194   3.06050
   D16        3.10135   0.00068   0.00000  -0.02550  -0.02582   3.07553
   D17        0.97976  -0.00159   0.00000  -0.06654  -0.06662   0.91314
   D18       -1.12000  -0.00307   0.00000  -0.07612  -0.07559  -1.19559
   D19        1.08615   0.00053   0.00000   0.01176   0.01188   1.09803
   D20       -1.01929   0.00077   0.00000   0.01580   0.01594  -1.00335
   D21       -3.10741   0.00082   0.00000   0.01667   0.01679  -3.09062
   D22       -1.03635  -0.00040   0.00000  -0.01128  -0.01157  -1.04792
   D23        3.14139  -0.00016   0.00000  -0.00724  -0.00751   3.13388
   D24        1.05328  -0.00011   0.00000  -0.00637  -0.00666   1.04662
   D25       -3.09083  -0.00064   0.00000  -0.00724  -0.00709  -3.09792
   D26        1.08691  -0.00040   0.00000  -0.00320  -0.00303   1.08388
   D27       -1.00121  -0.00035   0.00000  -0.00234  -0.00218  -1.00338
         Item               Value     Threshold  Converged?
 Maximum Force            0.020844     0.000450     NO 
 RMS     Force            0.003954     0.000300     NO 
 Maximum Displacement     0.111951     0.001800     NO 
 RMS     Displacement     0.038226     0.001200     NO 
 Predicted change in Energy=-2.279323D-03
 GradGradGradGradGradGradGradGradGradGradGradGradGradGradGradGradGradGrad

                          Input orientation:                          
 ---------------------------------------------------------------------
 Center     Atomic      Atomic             Coordinates (Angstroms)
 Number     Number       Type             X           Y           Z
 ---------------------------------------------------------------------
      1          6           0       -0.274487    0.393343    0.376614
      2          6           0       -0.339480    0.434318    1.907642
      3          1           0        0.152495    1.330130    2.298442
      4          1           0        0.152988   -0.445043    2.334191
      5          1           0       -1.386181    0.442059    2.232720
      6         17           0        1.453242    0.477288   -0.154383
      7          1           0       -0.753718    1.291087   -0.026434
      8          6           0       -0.975224   -0.845222   -0.202972
      9          1           0       -0.449550   -1.740471    0.149462
     10          6           0       -1.087929   -0.861077   -1.736566
     11          1           0       -1.983620   -0.869474    0.229280
     12          1           0       -0.100388   -0.882216   -2.204471
     13          1           0       -1.619310    0.026826   -2.098302
     14          1           0       -1.641838   -1.744546   -2.072223
 ---------------------------------------------------------------------
                    Distance matrix (angstroms):
                    1          2          3          4          5
     1  C    0.000000
     2  C    1.532954   0.000000
     3  H    2.180207   1.094186   0.000000
     4  H    2.172034   1.094416   1.775533   0.000000
     5  H    2.164108   1.096046   1.777784   1.779407   0.000000
     6  Cl   1.809434   2.732699   2.904416   2.955394   3.709693
     7  H    1.094557   2.155526   2.495554   3.067379   2.494921
     8  C    1.536553   2.548742   3.501568   2.805388   2.785421
     9  H    2.153000   2.798754   3.795941   2.610408   3.159221
    10  C    2.588588   3.939350   4.756189   4.275982   4.188359
    11  H    2.130152   2.686999   3.699010   3.029172   2.467959
    12  H    2.884330   4.324337   5.023410   4.566702   4.805791
    13  H    2.840439   4.225115   4.916223   4.796946   4.357122
    14  H    3.526616   4.720478   5.637018   4.932200   4.835197
                    6          7          8          9         10
     6  Cl   0.000000
     7  H    2.355697   0.000000
     8  C    2.765654   2.155006   0.000000
     9  H    2.937924   3.051853   1.096364   0.000000
    10  C    3.279035   2.769127   1.537812   2.176686   0.000000
    11  H    3.711197   2.499215   1.097402   1.765892   2.160298
    12  H    2.909446   3.145462   2.184652   2.529726   1.092985
    13  H    3.663648   2.576867   2.183481   3.089355   1.096171
    14  H    4.265463   3.766840   2.178820   2.521398   1.095445
                   11         12         13         14
    11  H    0.000000
    12  H    3.077315   0.000000
    13  H    2.520657   1.773345   0.000000
    14  H    2.485857   1.771206   1.771707   0.000000
 Stoichiometry    C4H9Cl
 Framework group  C1[X(C4H9Cl)]
 Deg. of freedom    36
 Full point group                 C1      NOp   1
 Largest Abelian subgroup         C1      NOp   1
 Largest concise Abelian subgroup C1      NOp   1
                         Standard orientation:                         
 ---------------------------------------------------------------------
 Center     Atomic      Atomic             Coordinates (Angstroms)
 Number     Number       Type             X           Y           Z
 ---------------------------------------------------------------------
      1          6           0       -0.267591    0.423553    0.352471
      2          6           0       -1.315542    1.483343   -0.006126
      3          1           0       -2.265455    1.284001    0.499019
      4          1           0       -1.493313    1.494194   -1.085953
      5          1           0       -0.959248    2.473496    0.300421
      6         17           0       -0.903039   -1.217305   -0.069243
      7          1           0       -0.121851    0.416557    1.437260
      8          6           0        1.084600    0.688316   -0.327584
      9          1           0        0.946972    0.627064   -1.413549
     10          6           0        2.222557   -0.244208    0.119988
     11          1           0        1.359197    1.724584   -0.092982
     12          1           0        2.004847   -1.283909   -0.137383
     13          1           0        2.373156   -0.184127    1.204100
     14          1           0        3.163213    0.036300   -0.366303
 ---------------------------------------------------------------------
 Rotational constants (GHZ):      4.5678141      3.0505860      1.9773561
 Standard basis: 6-31G(d) (6D, 7F)
 There are    97 symmetry adapted basis functions of A   symmetry.
 Integral buffers will be    131072 words long.
 Raffenetti 2 integral format.
 Two-electron integral symmetry is turned on.
    97 basis functions,   200 primitive gaussians,    97 cartesian basis functions
    25 alpha electrons       25 beta electrons
       nuclear repulsion energy       232.5294153161 Hartrees.
 NAtoms=   14 NActive=   14 NUniq=   14 SFac= 1.00D+00 NAtFMM=   50 NAOKFM=F Big=F
 One-electron integrals computed using PRISM.
 NBasis=    97 RedAO= T  NBF=    97
 NBsUse=    97 1.00D-06 NBFU=    97
 Initial guess read from the read-write file.
 B after Tr=     0.000000    0.000000    0.000000
         Rot=    1.000000    0.000000    0.000000    0.000000 Ang=   0.00 deg.
 Initial guess orbital symmetries:
       Occupied  (A) (A) (A) (A) (A) (A) (A) (A) (A) (A) (A) (A)
                 (A) (A) (A) (A) (A) (A) (A) (A) (A) (A) (A) (A)
                 (A)
       Virtual   (A) (A) (A) (A) (A) (A) (A) (A) (A) (A) (A) (A)
                 (A) (A) (A) (A) (A) (A) (A) (A) (A) (A) (A) (A)
                 (A) (A) (A) (A) (A) (A) (A) (A) (A) (A) (A) (A)
                 (A) (A) (A) (A) (A) (A) (A) (A) (A) (A) (A) (A)
                 (A) (A) (A) (A) (A) (A) (A) (A) (A) (A) (A) (A)
                 (A) (A) (A) (A) (A) (A) (A) (A) (A) (A) (A) (A)
 Harris functional with IExCor=  402 diagonalized for initial guess.
 ExpMin= 1.43D-01 ExpMax= 2.52D+04 ExpMxC= 3.78D+03 IAcc=1 IRadAn=         1 AccDes= 0.00D+00
 HarFok:  IExCor=  402 AccDes= 0.00D+00 IRadAn=         1 IDoV= 1
 ScaDFX=  1.000000  1.000000  1.000000  1.000000
 FoFCou: FMM=F IPFlag=           0 FMFlag=      100000 FMFlg1=           0
         NFxFlg=           0 DoJE=T BraDBF=F KetDBF=T FulRan=T
         Omega=  0.000000  0.000000  1.000000  0.000000  0.000000 ICntrl=     500 IOpCl=  0
         NMat0=    1 NMatS0=    1 NMatT0=    0 NMatD0=    1 NMtDS0=    0 NMtDT0=    0
         I1Cent=           4 NGrid=           0.
 Petite list used in FoFCou.
 Requested convergence on RMS density matrix=1.00D-08 within 128 cycles.
 Requested convergence on MAX density matrix=1.00D-06.
 Requested convergence on             energy=1.00D-06.
 No special actions if energy rises.
 Keep R1 ints in memory in canonical form, NReq=12379667.
 Integral accuracy reduced to 1.0D-05 until final iterations.
 Initial convergence to 1.0D-05 achieved.  Increase integral accuracy.
 SCF Done:  E(RB3LYP) =  -618.056545375     A.U. after   11 cycles
             Convg  =    0.6370D-08             -V/T =  2.0049
 Calling FoFJK, ICntrl=      2127 FMM=F ISym2X=0 I1Cent= 0 IOpClX= 0 NMat=1 NMatS=1 NMatT=0.
 ***** Axes restored to original set *****
 -------------------------------------------------------------------
 Center     Atomic                   Forces (Hartrees/Bohr)
 Number     Number              X              Y              Z
 -------------------------------------------------------------------
      1        6          -0.014801833   -0.002158496    0.006961403
      2        6           0.002807945    0.000206367   -0.003563684
      3        1          -0.000180481   -0.000352939    0.000083460
      4        1          -0.000123190   -0.000196613    0.000847655
      5        1          -0.000294791   -0.000062518   -0.000128049
      6       17           0.006999869    0.000397036   -0.002816899
      7        1           0.002304026    0.001011879   -0.001322123
      8        6           0.003507066    0.002110580   -0.004944605
      9        1          -0.000519631   -0.000932974    0.000248582
     10        6           0.000297313   -0.000456826    0.004221730
     11        1          -0.000459034   -0.000131636    0.001321422
     12        1           0.000535886    0.000294240   -0.000462604
     13        1          -0.000048978    0.000183273   -0.000505057
     14        1          -0.000024168    0.000088627    0.000058769
 -------------------------------------------------------------------
 Cartesian Forces:  Max     0.014801833 RMS     0.003171475

 GradGradGradGradGradGradGradGradGradGradGradGradGradGradGradGradGradGrad
 Berny optimization.
 Using GEDIIS/GDIIS optimizer.
 Internal  Forces:  Max     0.007527287 RMS     0.001270061
 Search for a local minimum.
 Step number   2 out of a maximum of   74
 All quantities printed in internal units (Hartrees-Bohrs-Radians)
 Mixed Optimization -- RFO/linear search
 Update second derivatives using D2CorX and points    1    2
 DE= -2.62D-03 DEPred=-2.28D-03 R= 1.15D+00
 SS=  1.41D+00  RLast= 2.04D-01 DXNew= 5.0454D-01 6.1237D-01
 Trust test= 1.15D+00 RLast= 2.04D-01 DXMaxT set to 5.05D-01
 ITU=  1  0
 Use linear search instead of GDIIS.
     Eigenvalues ---    0.00230   0.00230   0.00241   0.03274   0.04022
     Eigenvalues ---    0.04732   0.04881   0.05420   0.05473   0.05496
     Eigenvalues ---    0.05617   0.08531   0.09194   0.12302   0.15613
     Eigenvalues ---    0.16000   0.16000   0.16000   0.16000   0.16115
     Eigenvalues ---    0.16964   0.20828   0.23053   0.23585   0.27439
     Eigenvalues ---    0.27630   0.27879   0.33299   0.33404   0.33434
     Eigenvalues ---    0.33445   0.33487   0.33542   0.33558   0.33573
     Eigenvalues ---    0.35614
 RFO step:  Lambda=-6.64659154D-04 EMin= 2.29878815D-03
 Quartic linear search produced a step of  0.27658.
 Iteration  1 RMS(Cart)=  0.01739848 RMS(Int)=  0.00027962
 Iteration  2 RMS(Cart)=  0.00035402 RMS(Int)=  0.00015440
 Iteration  3 RMS(Cart)=  0.00000007 RMS(Int)=  0.00015440
 Variable       Old X    -DE/DX   Delta X   Delta X   Delta X     New X
                                 (Linear)    (Quad)   (Total)
    R1        2.89686  -0.00286  -0.00917  -0.00955  -0.01871   2.87815
    R2        3.41933   0.00753   0.01991   0.02570   0.04561   3.46495
    R3        2.06841   0.00031  -0.00402   0.00278  -0.00124   2.06717
    R4        2.90366  -0.00241  -0.00885  -0.00769  -0.01654   2.88712
    R5        2.06771  -0.00034  -0.00414   0.00035  -0.00379   2.06392
    R6        2.06815   0.00043  -0.00358   0.00306  -0.00052   2.06763
    R7        2.07123   0.00025  -0.00259   0.00197  -0.00063   2.07060
    R8        2.07183   0.00059  -0.00324   0.00356   0.00032   2.07214
    R9        2.90604  -0.00336  -0.00697  -0.01276  -0.01973   2.88632
   R10        2.07379   0.00094  -0.00329   0.00492   0.00163   2.07542
   R11        2.06544   0.00068  -0.00416   0.00423   0.00007   2.06552
   R12        2.07146   0.00034  -0.00267   0.00234  -0.00033   2.07114
   R13        2.07009  -0.00008  -0.00352   0.00111  -0.00241   2.06768
    A1        1.90957  -0.00017   0.00313  -0.00953  -0.00634   1.90323
    A2        1.90422   0.00025   0.00083   0.02006   0.02037   1.92459
    A3        1.95944   0.00150   0.00543   0.01061   0.01558   1.97503
    A4        1.84621  -0.00070  -0.00954  -0.02300  -0.03236   1.81386
    A5        1.94138  -0.00141   0.00312  -0.01972  -0.01661   1.92476
    A6        1.89923   0.00043  -0.00369   0.02067   0.01634   1.91557
    A7        1.93856   0.00022   0.00500   0.00029   0.00526   1.94383
    A8        1.92699   0.00111   0.00036   0.00961   0.00993   1.93691
    A9        1.91441  -0.00059  -0.00433  -0.00437  -0.00868   1.90573
   A10        1.89262  -0.00048  -0.00078  -0.00086  -0.00171   1.89091
   A11        1.89407   0.00004   0.00027  -0.00152  -0.00123   1.89284
   A12        1.89632  -0.00034  -0.00055  -0.00337  -0.00391   1.89241
   A13        1.89472   0.00063  -0.00420   0.00713   0.00258   1.89731
   A14        2.00193  -0.00032   0.01201  -0.00459   0.00737   2.00929
   A15        1.86324  -0.00052  -0.01152  -0.00119  -0.01286   1.85038
   A16        1.92548  -0.00028   0.00474  -0.00379   0.00091   1.92639
   A17        1.87121  -0.00043  -0.00438  -0.00763  -0.01225   1.85897
   A18        1.90206   0.00089   0.00229   0.00978   0.01230   1.91435
   A19        1.94003   0.00018   0.00082   0.00102   0.00183   1.94187
   A20        1.93507   0.00053   0.00250   0.00293   0.00542   1.94049
   A21        1.92938  -0.00015   0.00288  -0.00198   0.00089   1.93026
   A22        1.88850  -0.00043  -0.00265  -0.00298  -0.00563   1.88287
   A23        1.88609   0.00003  -0.00085   0.00117   0.00031   1.88640
   A24        1.88287  -0.00019  -0.00296  -0.00025  -0.00323   1.87964
    D1        0.99125   0.00016  -0.00639  -0.00857  -0.01498   0.97627
    D2       -1.10895  -0.00012  -0.00888  -0.01406  -0.02302  -1.13197
    D3        3.08500  -0.00003  -0.00565  -0.01313  -0.01884   3.06616
    D4       -1.02092   0.00095   0.00281   0.01304   0.01604  -1.00488
    D5       -3.12112   0.00067   0.00032   0.00754   0.00800  -3.11312
    D6        1.07282   0.00076   0.00355   0.00847   0.01218   1.08501
    D7       -3.12771  -0.00073   0.00341  -0.03352  -0.03019   3.12529
    D8        1.05528  -0.00102   0.00091  -0.03901  -0.03823   1.01705
    D9       -1.03397  -0.00092   0.00415  -0.03808  -0.03405  -1.06801
   D10       -1.09799   0.00075  -0.00509   0.04708   0.04197  -1.05602
   D11        3.02280   0.00085  -0.01637   0.04976   0.03341   3.05621
   D12        0.91407   0.00029  -0.01886   0.04110   0.02249   0.93657
   D13        1.04844   0.00058   0.00493   0.02779   0.03262   1.08105
   D14       -1.11396   0.00068  -0.00635   0.03046   0.02406  -1.08990
   D15        3.06050   0.00012  -0.00884   0.02180   0.01314   3.07364
   D16        3.07553  -0.00082  -0.00714   0.00099  -0.00635   3.06919
   D17        0.91314  -0.00072  -0.01843   0.00367  -0.01490   0.89823
   D18       -1.19559  -0.00127  -0.02091  -0.00499  -0.02582  -1.22141
   D19        1.09803   0.00013   0.00329  -0.01547  -0.01217   1.08586
   D20       -1.00335   0.00019   0.00441  -0.01435  -0.00992  -1.01328
   D21       -3.09062   0.00019   0.00464  -0.01464  -0.00998  -3.10060
   D22       -1.04792  -0.00026  -0.00320  -0.01856  -0.02184  -1.06976
   D23        3.13388  -0.00019  -0.00208  -0.01744  -0.01960   3.11429
   D24        1.04662  -0.00020  -0.00184  -0.01773  -0.01966   1.02697
   D25       -3.09792  -0.00010  -0.00196  -0.01293  -0.01482  -3.11275
   D26        1.08388  -0.00003  -0.00084  -0.01181  -0.01258   1.07130
   D27       -1.00338  -0.00004  -0.00060  -0.01210  -0.01264  -1.01602
         Item               Value     Threshold  Converged?
 Maximum Force            0.007527     0.000450     NO 
 RMS     Force            0.001270     0.000300     NO 
 Maximum Displacement     0.050022     0.001800     NO 
 RMS     Displacement     0.017419     0.001200     NO 
 Predicted change in Energy=-4.674428D-04
 GradGradGradGradGradGradGradGradGradGradGradGradGradGradGradGradGradGrad

                          Input orientation:                          
 ---------------------------------------------------------------------
 Center     Atomic      Atomic             Coordinates (Angstroms)
 Number     Number       Type             X           Y           Z
 ---------------------------------------------------------------------
      1          6           0       -0.300957    0.394308    0.382886
      2          6           0       -0.334958    0.428603    1.905172
      3          1           0        0.174694    1.312484    2.294876
      4          1           0        0.144367   -0.459542    2.327779
      5          1           0       -1.377435    0.452798    2.241695
      6         17           0        1.442099    0.484539   -0.178894
      7          1           0       -0.756872    1.300314   -0.026889
      8          6           0       -0.983902   -0.839073   -0.205783
      9          1           0       -0.466481   -1.734825    0.157926
     10          6           0       -1.079238   -0.862095   -1.730005
     11          1           0       -1.992425   -0.863268    0.228367
     12          1           0       -0.087331   -0.868119   -2.189121
     13          1           0       -1.618909    0.014462   -2.106322
     14          1           0       -1.615652   -1.753586   -2.068687
 ---------------------------------------------------------------------
                    Distance matrix (angstroms):
                    1          2          3          4          5
     1  C    0.000000
     2  C    1.523052   0.000000
     3  H    2.173706   1.092181   0.000000
     4  H    2.170249   1.094143   1.772590   0.000000
     5  H    2.148812   1.095715   1.775104   1.776416   0.000000
     6  Cl   1.833571   2.739414   2.900232   2.976374   3.716184
     7  H    1.093901   2.161192   2.501710   3.074700   2.499971
     8  C    1.527801   2.546422   3.496404   2.799281   2.795344
     9  H    2.147374   2.783988   3.776738   2.589931   3.155570
    10  C    2.578484   3.928660   4.743502   4.257331   4.194313
    11  H    2.113394   2.688457   3.701454   3.022648   2.482686
    12  H    2.873079   4.301865   4.992987   4.541256   4.800137
    13  H    2.842083   4.232272   4.926704   4.795317   4.376722
    14  H    3.514553   4.711017   5.625550   4.909290   4.848120
                    6          7          8          9         10
     6  Cl   0.000000
     7  H    2.350333   0.000000
     8  C    2.763721   2.158824   0.000000
     9  H    2.946473   3.054595   1.096532   0.000000
    10  C    3.252155   2.771378   1.527374   2.168274   0.000000
    11  H    3.711926   2.504563   1.098267   1.758715   2.160818
    12  H    2.865284   3.134587   2.176767   2.530527   1.093025
    13  H    3.647700   2.592405   2.178027   3.084626   1.095998
    14  H    4.234426   3.772632   2.169298   2.505744   1.094167
                   11         12         13         14
    11  H    0.000000
    12  H    3.077930   0.000000
    13  H    2.522042   1.769614   0.000000
    14  H    2.492204   1.770402   1.768452   0.000000
 Stoichiometry    C4H9Cl
 Framework group  C1[X(C4H9Cl)]
 Deg. of freedom    36
 Full point group                 C1      NOp   1
 Largest Abelian subgroup         C1      NOp   1
 Largest concise Abelian subgroup C1      NOp   1
                         Standard orientation:                         
 ---------------------------------------------------------------------
 Center     Atomic      Atomic             Coordinates (Angstroms)
 Number     Number       Type             X           Y           Z
 ---------------------------------------------------------------------
      1          6           0       -0.268563    0.443837    0.357446
      2          6           0       -1.329983    1.471534   -0.012571
      3          1           0       -2.283872    1.250422    0.471231
      4          1           0       -1.490411    1.496759   -1.094595
      5          1           0       -0.998581    2.464325    0.311667
      6         17           0       -0.882280   -1.230454   -0.069269
      7          1           0       -0.138145    0.407698    1.442943
      8          6           0        1.078248    0.701780   -0.316154
      9          1           0        0.941339    0.660684   -1.403329
     10          6           0        2.207609   -0.232570    0.113269
     11          1           0        1.344384    1.739452   -0.074084
     12          1           0        1.981781   -1.270980   -0.142487
     13          1           0        2.374329   -0.181121    1.195290
     14          1           0        3.144075    0.042987   -0.381000
 ---------------------------------------------------------------------
 Rotational constants (GHZ):      4.5323224      3.0863174      1.9841280
 Standard basis: 6-31G(d) (6D, 7F)
 There are    97 symmetry adapted basis functions of A   symmetry.
 Integral buffers will be    131072 words long.
 Raffenetti 2 integral format.
 Two-electron integral symmetry is turned on.
    97 basis functions,   200 primitive gaussians,    97 cartesian basis functions
    25 alpha electrons       25 beta electrons
       nuclear repulsion energy       232.6542032526 Hartrees.
 NAtoms=   14 NActive=   14 NUniq=   14 SFac= 1.00D+00 NAtFMM=   50 NAOKFM=F Big=F
 One-electron integrals computed using PRISM.
 NBasis=    97 RedAO= T  NBF=    97
 NBsUse=    97 1.00D-06 NBFU=    97
 Initial guess read from the read-write file.
 B after Tr=     0.000000    0.000000    0.000000
         Rot=    1.000000    0.000000    0.000000    0.000000 Ang=   0.00 deg.
 Initial guess orbital symmetries:
       Occupied  (A) (A) (A) (A) (A) (A) (A) (A) (A) (A) (A) (A)
                 (A) (A) (A) (A) (A) (A) (A) (A) (A) (A) (A) (A)
                 (A)
       Virtual   (A) (A) (A) (A) (A) (A) (A) (A) (A) (A) (A) (A)
                 (A) (A) (A) (A) (A) (A) (A) (A) (A) (A) (A) (A)
                 (A) (A) (A) (A) (A) (A) (A) (A) (A) (A) (A) (A)
                 (A) (A) (A) (A) (A) (A) (A) (A) (A) (A) (A) (A)
                 (A) (A) (A) (A) (A) (A) (A) (A) (A) (A) (A) (A)
                 (A) (A) (A) (A) (A) (A) (A) (A) (A) (A) (A) (A)
 Harris functional with IExCor=  402 diagonalized for initial guess.
 ExpMin= 1.43D-01 ExpMax= 2.52D+04 ExpMxC= 3.78D+03 IAcc=1 IRadAn=         1 AccDes= 0.00D+00
 HarFok:  IExCor=  402 AccDes= 0.00D+00 IRadAn=         1 IDoV= 1
 ScaDFX=  1.000000  1.000000  1.000000  1.000000
 FoFCou: FMM=F IPFlag=           0 FMFlag=      100000 FMFlg1=           0
         NFxFlg=           0 DoJE=T BraDBF=F KetDBF=T FulRan=T
         Omega=  0.000000  0.000000  1.000000  0.000000  0.000000 ICntrl=     500 IOpCl=  0
         NMat0=    1 NMatS0=    1 NMatT0=    0 NMatD0=    1 NMtDS0=    0 NMtDT0=    0
         I1Cent=           4 NGrid=           0.
 Petite list used in FoFCou.
 Requested convergence on RMS density matrix=1.00D-08 within 128 cycles.
 Requested convergence on MAX density matrix=1.00D-06.
 Requested convergence on             energy=1.00D-06.
 No special actions if energy rises.
 Keep R1 ints in memory in canonical form, NReq=12379667.
 Integral accuracy reduced to 1.0D-05 until final iterations.
 Initial convergence to 1.0D-05 achieved.  Increase integral accuracy.
 SCF Done:  E(RB3LYP) =  -618.057019927     A.U. after   10 cycles
             Convg  =    0.6870D-08             -V/T =  2.0049
 Calling FoFJK, ICntrl=      2127 FMM=F ISym2X=0 I1Cent= 0 IOpClX= 0 NMat=1 NMatS=1 NMatT=0.
 ***** Axes restored to original set *****
 -------------------------------------------------------------------
 Center     Atomic                   Forces (Hartrees/Bohr)
 Number     Number              X              Y              Z
 -------------------------------------------------------------------
      1        6          -0.002298370    0.000347793    0.000157189
      2        6           0.000395804   -0.000042307   -0.000570667
      3        1           0.000244481    0.000787129    0.000229066
      4        1           0.000193441   -0.000506121    0.000097412
      5        1          -0.000776519    0.000008452    0.000694721
      6       17           0.003071710    0.000102969   -0.000441480
      7        1          -0.000006796    0.000420061    0.000102558
      8        6           0.000707953   -0.000040913    0.000959644
      9        1           0.000272637   -0.000598835    0.000148280
     10        6          -0.000417493    0.000310782   -0.000610372
     11        1          -0.001237622   -0.000544167   -0.000048484
     12        1           0.000539409   -0.000095942   -0.000190678
     13        1          -0.000297968    0.000521990   -0.000274898
     14        1          -0.000390666   -0.000670893   -0.000252290
 -------------------------------------------------------------------
 Cartesian Forces:  Max     0.003071710 RMS     0.000750442

 GradGradGradGradGradGradGradGradGradGradGradGradGradGradGradGradGradGrad
 Berny optimization.
 Using GEDIIS/GDIIS optimizer.
 Internal  Forces:  Max     0.003058099 RMS     0.000576923
 Search for a local minimum.
 Step number   3 out of a maximum of   74
 All quantities printed in internal units (Hartrees-Bohrs-Radians)
 Mixed Optimization -- En-DIIS/RFO-DIIS
 Update second derivatives using D2CorX and points    1    2    3
 DE= -4.75D-04 DEPred=-4.67D-04 R= 1.02D+00
 SS=  1.41D+00  RLast= 1.40D-01 DXNew= 8.4853D-01 4.2003D-01
 Trust test= 1.02D+00 RLast= 1.40D-01 DXMaxT set to 5.05D-01
 ITU=  1  1  0
 Use linear search instead of GDIIS.
     Eigenvalues ---    0.00230   0.00230   0.00248   0.03161   0.03770
     Eigenvalues ---    0.04681   0.04926   0.05393   0.05402   0.05469
     Eigenvalues ---    0.05642   0.08768   0.09612   0.12593   0.15211
     Eigenvalues ---    0.16000   0.16000   0.16000   0.16113   0.16128
     Eigenvalues ---    0.17225   0.17840   0.22931   0.23391   0.27471
     Eigenvalues ---    0.27652   0.29473   0.33295   0.33406   0.33445
     Eigenvalues ---    0.33475   0.33505   0.33545   0.33558   0.33690
     Eigenvalues ---    0.36912
 RFO step:  Lambda=-1.17841325D-04 EMin= 2.29698999D-03
 Quartic linear search produced a step of  0.03684.
 Iteration  1 RMS(Cart)=  0.01740833 RMS(Int)=  0.00010505
 Iteration  2 RMS(Cart)=  0.00014601 RMS(Int)=  0.00000859
 Iteration  3 RMS(Cart)=  0.00000001 RMS(Int)=  0.00000859
 Variable       Old X    -DE/DX   Delta X   Delta X   Delta X     New X
                                 (Linear)    (Quad)   (Total)
    R1        2.87815   0.00046  -0.00069  -0.00045  -0.00113   2.87702
    R2        3.46495   0.00306   0.00168   0.01616   0.01784   3.48279
    R3        2.06717   0.00031  -0.00005   0.00064   0.00060   2.06777
    R4        2.88712   0.00137  -0.00061   0.00323   0.00262   2.88975
    R5        2.06392   0.00083  -0.00014   0.00201   0.00187   2.06579
    R6        2.06763   0.00053  -0.00002   0.00140   0.00138   2.06901
    R7        2.07060   0.00096  -0.00002   0.00274   0.00271   2.07332
    R8        2.07214   0.00067   0.00001   0.00192   0.00193   2.07408
    R9        2.88632   0.00136  -0.00073   0.00297   0.00224   2.88856
   R10        2.07542   0.00113   0.00006   0.00346   0.00352   2.07894
   R11        2.06552   0.00057   0.00000   0.00154   0.00155   2.06706
   R12        2.07114   0.00066  -0.00001   0.00185   0.00183   2.07297
   R13        2.06768   0.00082  -0.00009   0.00211   0.00202   2.06970
    A1        1.90323  -0.00066  -0.00023  -0.00559  -0.00582   1.89741
    A2        1.92459  -0.00021   0.00075   0.00003   0.00073   1.92532
    A3        1.97503   0.00032   0.00057   0.00245   0.00300   1.97803
    A4        1.81386   0.00017  -0.00119  -0.00160  -0.00279   1.81106
    A5        1.92476   0.00029  -0.00061   0.00012  -0.00049   1.92428
    A6        1.91557   0.00007   0.00060   0.00419   0.00476   1.92033
    A7        1.94383  -0.00016   0.00019  -0.00040  -0.00021   1.94361
    A8        1.93691  -0.00024   0.00037  -0.00073  -0.00037   1.93655
    A9        1.90573   0.00065  -0.00032   0.00335   0.00303   1.90876
   A10        1.89091   0.00018  -0.00006   0.00062   0.00056   1.89146
   A11        1.89284  -0.00024  -0.00005  -0.00150  -0.00155   1.89130
   A12        1.89241  -0.00019  -0.00014  -0.00142  -0.00156   1.89085
   A13        1.89731  -0.00002   0.00010   0.00115   0.00124   1.89855
   A14        2.00929  -0.00005   0.00027   0.00145   0.00172   2.01101
   A15        1.85038   0.00058  -0.00047   0.00373   0.00325   1.85363
   A16        1.92639   0.00010   0.00003   0.00058   0.00061   1.92699
   A17        1.85897  -0.00005  -0.00045  -0.00250  -0.00295   1.85601
   A18        1.91435  -0.00055   0.00045  -0.00463  -0.00417   1.91018
   A19        1.94187  -0.00010   0.00007  -0.00059  -0.00053   1.94134
   A20        1.94049   0.00011   0.00020   0.00159   0.00179   1.94227
   A21        1.93026  -0.00001   0.00003   0.00005   0.00008   1.93035
   A22        1.88287   0.00002  -0.00021  -0.00029  -0.00050   1.88237
   A23        1.88640   0.00000   0.00001  -0.00055  -0.00054   1.88586
   A24        1.87964  -0.00002  -0.00012  -0.00025  -0.00037   1.87927
    D1        0.97627  -0.00012  -0.00055   0.01090   0.01035   0.98662
    D2       -1.13197  -0.00008  -0.00085   0.01088   0.01003  -1.12193
    D3        3.06616  -0.00010  -0.00069   0.01095   0.01026   3.07642
    D4       -1.00488   0.00016   0.00059   0.01589   0.01649  -0.98839
    D5       -3.11312   0.00020   0.00029   0.01588   0.01617  -3.09695
    D6        1.08501   0.00018   0.00045   0.01595   0.01640   1.10141
    D7        3.12529  -0.00001  -0.00111   0.00862   0.00751   3.13279
    D8        1.01705   0.00004  -0.00141   0.00861   0.00719   1.02424
    D9       -1.06801   0.00001  -0.00125   0.00868   0.00742  -1.06059
   D10       -1.05602   0.00002   0.00155  -0.02677  -0.02522  -1.08123
   D11        3.05621  -0.00007   0.00123  -0.02952  -0.02828   3.02793
   D12        0.93657   0.00024   0.00083  -0.02725  -0.02642   0.91015
   D13        1.08105  -0.00039   0.00120  -0.03221  -0.03101   1.05004
   D14       -1.08990  -0.00048   0.00089  -0.03496  -0.03407  -1.12397
   D15        3.07364  -0.00016   0.00048  -0.03269  -0.03221   3.04143
   D16        3.06919   0.00001  -0.00023  -0.03171  -0.03196   3.03723
   D17        0.89823  -0.00007  -0.00055  -0.03446  -0.03502   0.86321
   D18       -1.22141   0.00024  -0.00095  -0.03220  -0.03316  -1.25457
   D19        1.08586  -0.00004  -0.00045   0.00801   0.00757   1.09343
   D20       -1.01328  -0.00007  -0.00037   0.00771   0.00735  -1.00593
   D21       -3.10060  -0.00011  -0.00037   0.00696   0.00659  -3.09400
   D22       -1.06976  -0.00006  -0.00080   0.00491   0.00411  -1.06565
   D23        3.11429  -0.00009  -0.00072   0.00461   0.00389   3.11817
   D24        1.02697  -0.00013  -0.00072   0.00386   0.00313   1.03010
   D25       -3.11275   0.00026  -0.00055   0.01039   0.00984  -3.10291
   D26        1.07130   0.00024  -0.00046   0.01009   0.00962   1.08092
   D27       -1.01602   0.00019  -0.00047   0.00934   0.00887  -1.00715
         Item               Value     Threshold  Converged?
 Maximum Force            0.003058     0.000450     NO 
 RMS     Force            0.000577     0.000300     NO 
 Maximum Displacement     0.045670     0.001800     NO 
 RMS     Displacement     0.017413     0.001200     NO 
 Predicted change in Energy=-6.027838D-05
 GradGradGradGradGradGradGradGradGradGradGradGradGradGradGradGradGradGrad

                          Input orientation:                          
 ---------------------------------------------------------------------
 Center     Atomic      Atomic             Coordinates (Angstroms)
 Number     Number       Type             X           Y           Z
 ---------------------------------------------------------------------
      1          6           0       -0.294338    0.390385    0.383785
      2          6           0       -0.341824    0.434762    1.904848
      3          1           0        0.160116    1.324898    2.293090
      4          1           0        0.138701   -0.448754    2.337564
      5          1           0       -1.387693    0.455729    2.235695
      6         17           0        1.466266    0.469341   -0.155406
      7          1           0       -0.736422    1.298710   -0.036714
      8          6           0       -0.974172   -0.845131   -0.207606
      9          1           0       -0.446599   -1.741037    0.144024
     10          6           0       -1.089572   -0.858288   -1.731747
     11          1           0       -1.980060   -0.884080    0.236192
     12          1           0       -0.102786   -0.859750   -2.203704
     13          1           0       -1.635878    0.019923   -2.097309
     14          1           0       -1.628738   -1.749706   -2.069711
 ---------------------------------------------------------------------
                    Distance matrix (angstroms):
                    1          2          3          4          5
     1  C    0.000000
     2  C    1.522451   0.000000
     3  H    2.173773   1.093169   0.000000
     4  H    2.170007   1.094873   1.774339   0.000000
     5  H    2.151572   1.097151   1.776080   1.777173   0.000000
     6  Cl   1.843011   2.741356   2.903987   2.969887   3.723255
     7  H    1.094218   2.161430   2.496488   3.075170   2.509704
     8  C    1.529188   2.549599   3.499874   2.805975   2.798742
     9  H    2.150262   2.800996   3.792960   2.612315   3.175928
    10  C    2.582065   3.931404   4.746297   4.270325   4.190001
    11  H    2.118419   2.684693   3.700103   3.015696   2.478709
    12  H    2.880040   4.314290   5.006292   4.566219   4.805177
    13  H    2.844784   4.226574   4.919771   4.799676   4.361931
    14  H    3.518559   4.714358   5.629141   4.923454   4.843405
                    6          7          8          9         10
     6  Cl   0.000000
     7  H    2.356646   0.000000
     8  C    2.772418   2.163743   0.000000
     9  H    2.938449   3.058876   1.097554   0.000000
    10  C    3.283255   2.765952   1.528560   2.170525   0.000000
    11  H    3.723205   2.526991   1.100129   1.759083   2.160189
    12  H    2.902401   3.123506   2.178057   2.531146   1.093843
    13  H    3.687311   2.586574   2.181089   3.088517   1.096969
    14  H    4.262368   3.771226   2.171209   2.509612   1.095238
                   11         12         13         14
    11  H    0.000000
    12  H    3.078610   0.000000
    13  H    2.526046   1.770739   0.000000
    14  H    2.487956   1.771582   1.769859   0.000000
 Stoichiometry    C4H9Cl
 Framework group  C1[X(C4H9Cl)]
 Deg. of freedom    36
 Full point group                 C1      NOp   1
 Largest Abelian subgroup         C1      NOp   1
 Largest concise Abelian subgroup C1      NOp   1
                         Standard orientation:                         
 ---------------------------------------------------------------------
 Center     Atomic      Atomic             Coordinates (Angstroms)
 Number     Number       Type             X           Y           Z
 ---------------------------------------------------------------------
      1          6           0       -0.255564    0.448574    0.356256
      2          6           0       -1.299902    1.495226   -0.006695
      3          1           0       -2.251673    1.298255    0.493658
      4          1           0       -1.475610    1.514807   -1.087199
      5          1           0       -0.944977    2.486016    0.303313
      6         17           0       -0.916501   -1.218472   -0.068961
      7          1           0       -0.121212    0.406391    1.441375
      8          6           0        1.092235    0.674458   -0.329916
      9          1           0        0.951450    0.606357   -1.416270
     10          6           0        2.217069   -0.257052    0.121232
     11          1           0        1.373262    1.716958   -0.118960
     12          1           0        1.984442   -1.300364   -0.110880
     13          1           0        2.386032   -0.182724    1.202558
     14          1           0        3.155768    0.001095   -0.380514
 ---------------------------------------------------------------------
 Rotational constants (GHZ):      4.5346575      3.0476967      1.9710898
 Standard basis: 6-31G(d) (6D, 7F)
 There are    97 symmetry adapted basis functions of A   symmetry.
 Integral buffers will be    131072 words long.
 Raffenetti 2 integral format.
 Two-electron integral symmetry is turned on.
    97 basis functions,   200 primitive gaussians,    97 cartesian basis functions
    25 alpha electrons       25 beta electrons
       nuclear repulsion energy       232.0766676734 Hartrees.
 NAtoms=   14 NActive=   14 NUniq=   14 SFac= 1.00D+00 NAtFMM=   50 NAOKFM=F Big=F
 One-electron integrals computed using PRISM.
 NBasis=    97 RedAO= T  NBF=    97
 NBsUse=    97 1.00D-06 NBFU=    97
 Initial guess read from the read-write file.
 B after Tr=     0.000000    0.000000    0.000000
         Rot=    1.000000    0.000000    0.000000    0.000000 Ang=   0.00 deg.
 Initial guess orbital symmetries:
       Occupied  (A) (A) (A) (A) (A) (A) (A) (A) (A) (A) (A) (A)
                 (A) (A) (A) (A) (A) (A) (A) (A) (A) (A) (A) (A)
                 (A)
       Virtual   (A) (A) (A) (A) (A) (A) (A) (A) (A) (A) (A) (A)
                 (A) (A) (A) (A) (A) (A) (A) (A) (A) (A) (A) (A)
                 (A) (A) (A) (A) (A) (A) (A) (A) (A) (A) (A) (A)
                 (A) (A) (A) (A) (A) (A) (A) (A) (A) (A) (A) (A)
                 (A) (A) (A) (A) (A) (A) (A) (A) (A) (A) (A) (A)
                 (A) (A) (A) (A) (A) (A) (A) (A) (A) (A) (A) (A)
 Harris functional with IExCor=  402 diagonalized for initial guess.
 ExpMin= 1.43D-01 ExpMax= 2.52D+04 ExpMxC= 3.78D+03 IAcc=1 IRadAn=         1 AccDes= 0.00D+00
 HarFok:  IExCor=  402 AccDes= 0.00D+00 IRadAn=         1 IDoV= 1
 ScaDFX=  1.000000  1.000000  1.000000  1.000000
 FoFCou: FMM=F IPFlag=           0 FMFlag=      100000 FMFlg1=           0
         NFxFlg=           0 DoJE=T BraDBF=F KetDBF=T FulRan=T
         Omega=  0.000000  0.000000  1.000000  0.000000  0.000000 ICntrl=     500 IOpCl=  0
         NMat0=    1 NMatS0=    1 NMatT0=    0 NMatD0=    1 NMtDS0=    0 NMtDT0=    0
         I1Cent=           4 NGrid=           0.
 Petite list used in FoFCou.
 Requested convergence on RMS density matrix=1.00D-08 within 128 cycles.
 Requested convergence on MAX density matrix=1.00D-06.
 Requested convergence on             energy=1.00D-06.
 No special actions if energy rises.
 Keep R1 ints in memory in canonical form, NReq=12379667.
 Integral accuracy reduced to 1.0D-05 until final iterations.
 Initial convergence to 1.0D-05 achieved.  Increase integral accuracy.
 SCF Done:  E(RB3LYP) =  -618.057069571     A.U. after   11 cycles
             Convg  =    0.7358D-08             -V/T =  2.0049
 Calling FoFJK, ICntrl=      2127 FMM=F ISym2X=0 I1Cent= 0 IOpClX= 0 NMat=1 NMatS=1 NMatT=0.
 ***** Axes restored to original set *****
 -------------------------------------------------------------------
 Center     Atomic                   Forces (Hartrees/Bohr)
 Number     Number              X              Y              Z
 -------------------------------------------------------------------
      1        6          -0.000500928    0.000077730   -0.000585273
      2        6           0.000072111   -0.000122796    0.000418861
      3        1           0.000080957    0.000151204   -0.000035475
      4        1          -0.000003808   -0.000070626   -0.000038959
      5        1          -0.000053015    0.000023064    0.000116184
      6       17           0.000244266   -0.000147093   -0.000239133
      7        1          -0.000006236   -0.000063510    0.000029560
      8        6          -0.000154053   -0.000169268    0.001240677
      9        1           0.000077213    0.000134404   -0.000090042
     10        6           0.000174021    0.000319084   -0.000744810
     11        1          -0.000110972   -0.000018167   -0.000231294
     12        1           0.000199028   -0.000019858   -0.000025847
     13        1          -0.000027508    0.000028588    0.000156781
     14        1           0.000008925   -0.000122756    0.000028770
 -------------------------------------------------------------------
 Cartesian Forces:  Max     0.001240677 RMS     0.000286701

 GradGradGradGradGradGradGradGradGradGradGradGradGradGradGradGradGradGrad
 Berny optimization.
 Using GEDIIS/GDIIS optimizer.
 Internal  Forces:  Max     0.000833829 RMS     0.000203316
 Search for a local minimum.
 Step number   4 out of a maximum of   74
 All quantities printed in internal units (Hartrees-Bohrs-Radians)
 Mixed Optimization -- En-DIIS/RFO-DIIS
 Swaping is turned off.
 Update second derivatives using D2CorX and points    1    2    3    4
 DE= -4.96D-05 DEPred=-6.03D-05 R= 8.24D-01
 SS=  1.41D+00  RLast= 1.04D-01 DXNew= 8.4853D-01 3.1303D-01
 Trust test= 8.24D-01 RLast= 1.04D-01 DXMaxT set to 5.05D-01
 ITU=  1  1  1  0
     Eigenvalues ---    0.00230   0.00230   0.00333   0.03278   0.03442
     Eigenvalues ---    0.04781   0.04941   0.05387   0.05404   0.05463
     Eigenvalues ---    0.05627   0.08707   0.09761   0.12570   0.14214
     Eigenvalues ---    0.16000   0.16000   0.16002   0.16008   0.16118
     Eigenvalues ---    0.16360   0.17556   0.22963   0.24079   0.27621
     Eigenvalues ---    0.27679   0.29101   0.33299   0.33416   0.33437
     Eigenvalues ---    0.33447   0.33501   0.33545   0.33555   0.33748
     Eigenvalues ---    0.35644
 En-DIIS/RFO-DIIS IScMMF=        0 using points:     4    3
 RFO step:  Lambda=-6.68779452D-06.
 DidBck=F Rises=F RFO-DIIS coefs:    0.88285    0.11715
 Iteration  1 RMS(Cart)=  0.01114444 RMS(Int)=  0.00004397
 Iteration  2 RMS(Cart)=  0.00006297 RMS(Int)=  0.00000113
 Iteration  3 RMS(Cart)=  0.00000000 RMS(Int)=  0.00000113
 Variable       Old X    -DE/DX   Delta X   Delta X   Delta X     New X
                                  (DIIS)     (GDIIS)  (Total)
    R1        2.87702   0.00045   0.00013   0.00086   0.00099   2.87800
    R2        3.48279   0.00030  -0.00209   0.00680   0.00471   3.48750
    R3        2.06777  -0.00006  -0.00007  -0.00033  -0.00040   2.06737
    R4        2.88975  -0.00032  -0.00031  -0.00051  -0.00081   2.88893
    R5        2.06579   0.00015  -0.00022   0.00069   0.00048   2.06626
    R6        2.06901   0.00004  -0.00016   0.00019   0.00003   2.06904
    R7        2.07332   0.00009  -0.00032   0.00083   0.00051   2.07383
    R8        2.07408  -0.00010  -0.00023   0.00000  -0.00023   2.07385
    R9        2.88856   0.00055  -0.00026   0.00248   0.00222   2.89078
   R10        2.07894   0.00001  -0.00041   0.00073   0.00031   2.07926
   R11        2.06706   0.00019  -0.00018   0.00056   0.00038   2.06744
   R12        2.07297  -0.00002  -0.00021   0.00027   0.00005   2.07302
   R13        2.06970   0.00009  -0.00024   0.00059   0.00036   2.07006
    A1        1.89741   0.00004   0.00068  -0.00156  -0.00087   1.89654
    A2        1.92532  -0.00007  -0.00009   0.00078   0.00070   1.92602
    A3        1.97803   0.00038  -0.00035   0.00227   0.00192   1.97994
    A4        1.81106   0.00010   0.00033  -0.00072  -0.00039   1.81067
    A5        1.92428  -0.00042   0.00006  -0.00212  -0.00206   1.92222
    A6        1.92033  -0.00006  -0.00056   0.00102   0.00046   1.92079
    A7        1.94361  -0.00015   0.00002  -0.00066  -0.00064   1.94298
    A8        1.93655  -0.00008   0.00004  -0.00091  -0.00087   1.93568
    A9        1.90876   0.00018  -0.00035   0.00189   0.00154   1.91030
   A10        1.89146   0.00010  -0.00007   0.00049   0.00043   1.89189
   A11        1.89130  -0.00001   0.00018  -0.00043  -0.00025   1.89105
   A12        1.89085  -0.00003   0.00018  -0.00038  -0.00020   1.89065
   A13        1.89855   0.00019  -0.00015  -0.00094  -0.00109   1.89746
   A14        2.01101  -0.00083  -0.00020  -0.00247  -0.00267   2.00834
   A15        1.85363   0.00044  -0.00038   0.00374   0.00336   1.85699
   A16        1.92699   0.00019  -0.00007  -0.00041  -0.00049   1.92651
   A17        1.85601  -0.00005   0.00035   0.00096   0.00131   1.85732
   A18        1.91018   0.00013   0.00049  -0.00047   0.00002   1.91020
   A19        1.94134  -0.00004   0.00006  -0.00040  -0.00033   1.94101
   A20        1.94227  -0.00019  -0.00021  -0.00042  -0.00063   1.94164
   A21        1.93035  -0.00005  -0.00001   0.00003   0.00002   1.93037
   A22        1.88237   0.00013   0.00006   0.00051   0.00057   1.88294
   A23        1.88586   0.00004   0.00006  -0.00012  -0.00006   1.88580
   A24        1.87927   0.00013   0.00004   0.00044   0.00049   1.87975
    D1        0.98662   0.00009  -0.00121   0.00010  -0.00111   0.98550
    D2       -1.12193   0.00013  -0.00118   0.00055  -0.00063  -1.12256
    D3        3.07642   0.00010  -0.00120   0.00038  -0.00082   3.07559
    D4       -0.98839  -0.00001  -0.00193   0.00140  -0.00053  -0.98893
    D5       -3.09695   0.00003  -0.00189   0.00185  -0.00005  -3.09699
    D6        1.10141   0.00000  -0.00192   0.00168  -0.00024   1.10116
    D7        3.13279  -0.00016  -0.00088  -0.00221  -0.00309   3.12970
    D8        1.02424  -0.00012  -0.00084  -0.00176  -0.00261   1.02163
    D9       -1.06059  -0.00015  -0.00087  -0.00193  -0.00280  -1.06339
   D10       -1.08123  -0.00003   0.00295   0.01418   0.01713  -1.06410
   D11        3.02793   0.00018   0.00331   0.01730   0.02061   3.04855
   D12        0.91015   0.00022   0.00309   0.01673   0.01982   0.92997
   D13        1.05004  -0.00003   0.00363   0.01219   0.01583   1.06587
   D14       -1.12397   0.00019   0.00399   0.01532   0.01931  -1.10467
   D15        3.04143   0.00023   0.00377   0.01474   0.01852   3.05995
   D16        3.03723  -0.00018   0.00374   0.01071   0.01446   3.05169
   D17        0.86321   0.00003   0.00410   0.01384   0.01794   0.88115
   D18       -1.25457   0.00007   0.00388   0.01326   0.01715  -1.23742
   D19        1.09343  -0.00012  -0.00089  -0.00443  -0.00532   1.08811
   D20       -1.00593  -0.00012  -0.00086  -0.00453  -0.00539  -1.01132
   D21       -3.09400  -0.00013  -0.00077  -0.00483  -0.00560  -3.09960
   D22       -1.06565   0.00011  -0.00048  -0.00096  -0.00144  -1.06709
   D23        3.11817   0.00010  -0.00046  -0.00105  -0.00151   3.11667
   D24        1.03010   0.00010  -0.00037  -0.00135  -0.00172   1.02838
   D25       -3.10291  -0.00002  -0.00115  -0.00161  -0.00276  -3.10566
   D26        1.08092  -0.00002  -0.00113  -0.00170  -0.00283   1.07809
   D27       -1.00715  -0.00003  -0.00104  -0.00200  -0.00304  -1.01019
         Item               Value     Threshold  Converged?
[...]
   D25       -3.10518   0.00000  -0.00006  -0.00027  -0.00033  -3.10551
   D26        1.07837   0.00000  -0.00006  -0.00026  -0.00032   1.07805
   D27       -1.00961   0.00000  -0.00005  -0.00021  -0.00026  -1.00988
         Item               Value     Threshold  Converged?
 Maximum Force            0.000040     0.000450     YES
 RMS     Force            0.000014     0.000300     YES
 Maximum Displacement     0.000490     0.001800     YES
 RMS     Displacement     0.000193     0.001200     YES
 Predicted change in Energy=-4.431453D-08
 Optimization completed.
    -- Stationary point found.
                           ----------------------------
                           !   Optimized Parameters   !
                           ! (Angstroms and Degrees)  !
 --------------------------                            --------------------------
 ! Name  Definition              Value          Derivative Info.                !
 --------------------------------------------------------------------------------
 ! R1    R(1,2)                  1.5232         -DE/DX =    0.0                 !
 ! R2    R(1,6)                  1.8446         -DE/DX =    0.0                 !
 ! R3    R(1,7)                  1.0941         -DE/DX =    0.0                 !
 ! R4    R(1,8)                  1.5287         -DE/DX =    0.0                 !
 ! R5    R(2,3)                  1.0934         -DE/DX =    0.0                 !
 ! R6    R(2,4)                  1.0949         -DE/DX =    0.0                 !
 ! R7    R(2,5)                  1.0973         -DE/DX =    0.0                 !
 ! R8    R(8,9)                  1.0974         -DE/DX =    0.0                 !
 ! R9    R(8,10)                 1.53           -DE/DX =    0.0                 !
 ! R10   R(8,11)                 1.1001         -DE/DX =    0.0                 !
 ! R11   R(10,12)                1.094          -DE/DX =    0.0                 !
 ! R12   R(10,13)                1.0969         -DE/DX =    0.0                 !
 ! R13   R(10,14)                1.0954         -DE/DX =    0.0                 !
 ! A1    A(2,1,6)              108.6106         -DE/DX =    0.0                 !
 ! A2    A(2,1,7)              110.3818         -DE/DX =    0.0                 !
 ! A3    A(2,1,8)              113.4208         -DE/DX =    0.0                 !
 ! A4    A(6,1,7)              103.7787         -DE/DX =    0.0                 !
 ! A5    A(6,1,8)              110.1122         -DE/DX =    0.0                 !
 ! A6    A(7,1,8)              110.0899         -DE/DX =    0.0                 !
 ! A7    A(1,2,3)              111.2932         -DE/DX =    0.0                 !
 ! A8    A(1,2,4)              110.9128         -DE/DX =    0.0                 !
 ! A9    A(1,2,5)              109.4368         -DE/DX =    0.0                 !
 ! A10   A(3,2,4)              108.413          -DE/DX =    0.0                 !
 ! A11   A(3,2,5)              108.3586         -DE/DX =    0.0                 !
 ! A12   A(4,2,5)              108.3421         -DE/DX =    0.0                 !
 ! A13   A(1,8,9)              108.7711         -DE/DX =    0.0                 !
 ! A14   A(1,8,10)             115.0173         -DE/DX =    0.0                 !
 ! A15   A(1,8,11)             106.377          -DE/DX =    0.0                 !
 ! A16   A(9,8,10)             110.3801         -DE/DX =    0.0                 !
 ! A17   A(9,8,11)             106.4791         -DE/DX =    0.0                 !
 ! A18   A(10,8,11)            109.4111         -DE/DX =    0.0                 !
 ! A19   A(8,10,12)            111.2058         -DE/DX =    0.0                 !
 ! A20   A(8,10,13)            111.2011         -DE/DX =    0.0                 !
 ! A21   A(8,10,14)            110.5713         -DE/DX =    0.0                 !
 ! A22   A(12,10,13)           107.9217         -DE/DX =    0.0                 !
 ! A23   A(12,10,14)           108.0716         -DE/DX =    0.0                 !
 ! A24   A(13,10,14)           107.7286         -DE/DX =    0.0                 !
 ! D1    D(6,1,2,3)             56.5073         -DE/DX =    0.0                 !
 ! D2    D(6,1,2,4)            -64.2793         -DE/DX =    0.0                 !
 ! D3    D(6,1,2,5)            176.2431         -DE/DX =    0.0                 !
 ! D4    D(7,1,2,3)            -56.6471         -DE/DX =    0.0                 !
 ! D5    D(7,1,2,4)           -177.4337         -DE/DX =    0.0                 !
 ! D6    D(7,1,2,5)             63.0887         -DE/DX =    0.0                 !
 ! D7    D(8,1,2,3)            179.278          -DE/DX =    0.0                 !
 ! D8    D(8,1,2,4)             58.4914         -DE/DX =    0.0                 !
 ! D9    D(8,1,2,5)            -60.9862         -DE/DX =    0.0                 !
 ! D10   D(2,1,8,9)            -61.2164         -DE/DX =    0.0                 !
 ! D11   D(2,1,8,10)           174.4162         -DE/DX =    0.0                 !
 ! D12   D(2,1,8,11)            53.1236         -DE/DX =    0.0                 !
 ! D13   D(6,1,8,9)             60.7213         -DE/DX =    0.0                 !
 ! D14   D(6,1,8,10)           -63.6461         -DE/DX =    0.0                 !
 ! D15   D(6,1,8,11)           175.0613         -DE/DX =    0.0                 !
 ! D16   D(7,1,8,9)            174.5501         -DE/DX =    0.0                 !
 ! D17   D(7,1,8,10)            50.1827         -DE/DX =    0.0                 !
 ! D18   D(7,1,8,11)           -71.1099         -DE/DX =    0.0                 !
 ! D19   D(1,8,10,12)           62.4598         -DE/DX =    0.0                 !
 ! D20   D(1,8,10,13)          -57.8403         -DE/DX =    0.0                 !
 ! D21   D(1,8,10,14)         -177.4731         -DE/DX =    0.0                 !
 ! D22   D(9,8,10,12)          -61.0575         -DE/DX =    0.0                 !
 ! D23   D(9,8,10,13)          178.6424         -DE/DX =    0.0                 !
 ! D24   D(9,8,10,14)           59.0096         -DE/DX =    0.0                 !
 ! D25   D(11,8,10,12)        -177.9137         -DE/DX =    0.0                 !
 ! D26   D(11,8,10,13)          61.7862         -DE/DX =    0.0                 !
 ! D27   D(11,8,10,14)         -57.8466         -DE/DX =    0.0                 !
 --------------------------------------------------------------------------------
 GradGradGradGradGradGradGradGradGradGradGradGradGradGradGradGradGradGrad

                          Input orientation:                          
 ---------------------------------------------------------------------
 Center     Atomic      Atomic             Coordinates (Angstroms)
 Number     Number       Type             X           Y           Z
 ---------------------------------------------------------------------
      1          6           0       -0.301754    0.391478    0.384077
      2          6           0       -0.338133    0.433696    1.906273
      3          1           0        0.167573    1.323531    2.291009
      4          1           0        0.145536   -0.450846    2.333452
      5          1           0       -1.381274    0.454888    2.246151
      6         17           0        1.457389    0.470993   -0.165160
      7          1           0       -0.746290    1.299998   -0.033039
      8          6           0       -0.981286   -0.844217   -0.205910
      9          1           0       -0.456543   -1.739760    0.150398
     10          6           0       -1.084481   -0.859086   -1.732390
     11          1           0       -1.991042   -0.880378    0.229166
     12          1           0       -0.093588   -0.861020   -2.195996
     13          1           0       -1.628263    0.019026   -2.101801
     14          1           0       -1.620844   -1.751302   -2.073231
 ---------------------------------------------------------------------
                    Distance matrix (angstroms):
                    1          2          3          4          5
     1  C    0.000000
     2  C    1.523215   0.000000
     3  H    2.173793   1.093419   0.000000
     4  H    2.170171   1.094913   1.775021   0.000000
     5  H    2.153301   1.097319   1.776366   1.777393   0.000000
     6  Cl   1.844606   2.741555   2.902277   2.968806   3.724606
     7  H    1.094078   2.162868   2.497378   3.075888   2.512394
     8  C    1.528656   2.551083   3.500516   2.805856   2.803618
     9  H    2.149591   2.796610   3.788863   2.605671   3.172348
    10  C    2.579923   3.932961   4.745439   4.267396   4.200405
    11  H    2.120214   2.696588   3.710529   3.029436   2.494591
    12  H    2.875563   4.308677   4.997367   4.554264   4.808578
    13  H    2.842171   4.230963   4.921741   4.799856   4.376719
    14  H    3.517082   4.717628   5.630241   4.922412   4.856103
                    6          7          8          9         10
     6  Cl   0.000000
     7  H    2.358158   0.000000
     8  C    2.771024   2.163970   0.000000
     9  H    2.941112   3.059041   1.097410   0.000000
    10  C    3.269009   2.768359   1.530036   2.171355   0.000000
    11  H    3.724698   2.524322   1.100094   1.760520   2.161020
    12  H    2.881680   3.126404   2.179158   2.531696   1.093985
    13  H    3.670981   2.588155   2.181323   3.088472   1.096925
    14  H    4.249100   3.773283   2.172262   2.510031   1.095403
                   11         12         13         14
    11  H    0.000000
    12  H    3.079305   0.000000
    13  H    2.524667   1.771605   0.000000
    14  H    2.489295   1.772056   1.770574   0.000000
 Stoichiometry    C4H9Cl
 Framework group  C1[X(C4H9Cl)]
 Deg. of freedom    36
 Full point group                 C1      NOp   1
 Largest Abelian subgroup         C1      NOp   1
 Largest concise Abelian subgroup C1      NOp   1
                         Standard orientation:                         
 ---------------------------------------------------------------------
 Center     Atomic      Atomic             Coordinates (Angstroms)
 Number     Number       Type             X           Y           Z
 ---------------------------------------------------------------------
      1          6           0       -0.259559    0.450548    0.358387
      2          6           0       -1.317101    1.483366   -0.009142
      3          1           0       -2.267656    1.272738    0.488497
      4          1           0       -1.488836    1.499153   -1.090387
      5          1           0       -0.977845    2.479710    0.301201
      6         17           0       -0.900030   -1.225613   -0.069226
      7          1           0       -0.127535    0.409984    1.443712
      8          6           0        1.086465    0.689227   -0.325749
      9          1           0        0.945926    0.628673   -1.412437
     10          6           0        2.213021   -0.245815    0.118747
     11          1           0        1.366490    1.729891   -0.104815
     12          1           0        1.980517   -1.287529   -0.121206
     13          1           0        2.381177   -0.178062    1.200587
     14          1           0        3.151306    0.016905   -0.381760
 ---------------------------------------------------------------------
 Rotational constants (GHZ):      4.5247044      3.0621386      1.9747930

 **********************************************************************

            Population analysis using the SCF density.

 **********************************************************************

 Orbital symmetries:
       Occupied  (A) (A) (A) (A) (A) (A) (A) (A) (A) (A) (A) (A)
                 (A) (A) (A) (A) (A) (A) (A) (A) (A) (A) (A) (A)
                 (A)
       Virtual   (A) (A) (A) (A) (A) (A) (A) (A) (A) (A) (A) (A)
                 (A) (A) (A) (A) (A) (A) (A) (A) (A) (A) (A) (A)
                 (A) (A) (A) (A) (A) (A) (A) (A) (A) (A) (A) (A)
                 (A) (A) (A) (A) (A) (A) (A) (A) (A) (A) (A) (A)
                 (A) (A) (A) (A) (A) (A) (A) (A) (A) (A) (A) (A)
                 (A) (A) (A) (A) (A) (A) (A) (A) (A) (A) (A) (A)
 The electronic state is 1-A.
 Alpha  occ. eigenvalues -- -101.52189 -10.25111 -10.19655 -10.19035 -10.17865
 Alpha  occ. eigenvalues --   -9.43839  -7.20196  -7.19272  -7.19266  -0.85560
 Alpha  occ. eigenvalues --   -0.76850  -0.73187  -0.64141  -0.57971  -0.47840
 Alpha  occ. eigenvalues --   -0.44709  -0.43984  -0.42401  -0.38702  -0.36903
 Alpha  occ. eigenvalues --   -0.35601  -0.34906  -0.34267  -0.28812  -0.28737
 Alpha virt. eigenvalues --    0.02665   0.08658   0.11821   0.12312   0.15322
 Alpha virt. eigenvalues --    0.16010   0.16865   0.17544   0.17799   0.19235
 Alpha virt. eigenvalues --    0.22190   0.23365   0.24571   0.40211   0.44191
 Alpha virt. eigenvalues --    0.46250   0.48136   0.49089   0.50646   0.54734
 Alpha virt. eigenvalues --    0.56994   0.58848   0.61930   0.62763   0.64910
 Alpha virt. eigenvalues --    0.71907   0.73457   0.77770   0.82553   0.85193
 Alpha virt. eigenvalues --    0.88064   0.89122   0.89501   0.89741   0.90824
 Alpha virt. eigenvalues --    0.91982   0.92943   0.95810   0.96798   0.98002
 Alpha virt. eigenvalues --    0.99010   1.04419   1.09505   1.14461   1.37318
 Alpha virt. eigenvalues --    1.41932   1.44865   1.52064   1.61491   1.66606
 Alpha virt. eigenvalues --    1.82433   1.86563   1.89263   1.92501   1.96181
 Alpha virt. eigenvalues --    1.99930   2.05802   2.14020   2.20333   2.24886
 Alpha virt. eigenvalues --    2.28523   2.35701   2.37735   2.38628   2.53656
 Alpha virt. eigenvalues --    2.66538   2.72041   4.09333   4.22132   4.28286
 Alpha virt. eigenvalues --    4.36364   4.49589
          Condensed to atoms (all electrons):
              1          2          3          4          5          6
     1  C    5.077091   0.355889  -0.028803  -0.035598  -0.028029   0.240160
     2  C    0.355889   5.123406   0.374854   0.377627   0.358245  -0.064304
     3  H   -0.028803   0.374854   0.540735  -0.027992  -0.028046  -0.000387
     4  H   -0.035598   0.377627  -0.027992   0.544343  -0.028212  -0.000413
     5  H   -0.028029   0.358245  -0.028046  -0.028212   0.570362   0.005320
     6  Cl   0.240160  -0.064304  -0.000387  -0.000413   0.005320  17.043395
     7  H    0.371944  -0.043516  -0.003366   0.005164  -0.001967  -0.051682
     8  C    0.361270  -0.044564   0.004485  -0.005287  -0.003250  -0.061062
     9  H   -0.040982  -0.003932  -0.000087   0.004675  -0.000030  -0.001157
    10  C   -0.043186   0.004262  -0.000143   0.000020  -0.000052  -0.007154
    11  H   -0.036561  -0.003641  -0.000023  -0.000105   0.003453   0.005439
    12  H   -0.005990   0.000094   0.000003   0.000004  -0.000006   0.009228
    13  H   -0.005028   0.000046   0.000000   0.000007   0.000002  -0.000060
    14  H    0.004421  -0.000126   0.000002   0.000001  -0.000006   0.000010
              7          8          9         10         11         12
     1  C    0.371944   0.361270  -0.040982  -0.043186  -0.036561  -0.005990
     2  C   -0.043516  -0.044564  -0.003932   0.004262  -0.003641   0.000094
     3  H   -0.003366   0.004485  -0.000087  -0.000143  -0.000023   0.000003
     4  H    0.005164  -0.005287   0.004675   0.000020  -0.000105   0.000004
     5  H   -0.001967  -0.003250  -0.000030  -0.000052   0.003453  -0.000006
     6  Cl  -0.051682  -0.061062  -0.001157  -0.007154   0.005439   0.009228
     7  H    0.584055  -0.046498   0.005936  -0.003861  -0.002119  -0.000101
     8  C   -0.046498   5.019061   0.375509   0.375998   0.363997  -0.032367
     9  H    0.005936   0.375509   0.576828  -0.035936  -0.034189  -0.003789
    10  C   -0.003861   0.375998  -0.035936   5.065017  -0.038081   0.380686
    11  H   -0.002119   0.363997  -0.034189  -0.038081   0.600547   0.004760
    12  H   -0.000101  -0.032367  -0.003789   0.380686   0.004760   0.533012
    13  H    0.005235  -0.036236   0.004912   0.377353  -0.003712  -0.029782
    14  H   -0.000048  -0.028169  -0.002791   0.372711  -0.003133  -0.028440
             13         14
     1  C   -0.005028   0.004421
     2  C    0.000046  -0.000126
     3  H    0.000000   0.000002
     4  H    0.000007   0.000001
     5  H    0.000002  -0.000006
     6  Cl  -0.000060   0.000010
     7  H    0.005235  -0.000048
     8  C   -0.036236  -0.028169
     9  H    0.004912  -0.002791
    10  C    0.377353   0.372711
    11  H   -0.003712  -0.003133
    12  H   -0.029782  -0.028440
    13  H    0.575189  -0.030902
    14  H   -0.030902   0.569310
 Mulliken atomic charges:
              1
     1  C   -0.186598
     2  C   -0.434340
     3  H    0.168768
     4  H    0.165764
     5  H    0.152216
     6  Cl  -0.117333
     7  H    0.180822
     8  C   -0.242889
     9  H    0.155031
    10  C   -0.447635
    11  H    0.143370
    12  H    0.172687
    13  H    0.142976
    14  H    0.147159
 Sum of Mulliken atomic charges =   0.00000
 Mulliken charges with hydrogens summed into heavy atoms:
              1
     1  C   -0.005776
     2  C    0.052409
     6  Cl  -0.117333
     8  C    0.055513
    10  C    0.015188
 Sum of Mulliken charges with hydrogens summed into heavy atoms =   0.00000
 Electronic spatial extent (au):  <R**2>=            655.6873
 Charge=              0.0000 electrons
 Dipole moment (field-independent basis, Debye):
    X=              0.8875    Y=              2.1179    Z=              0.3750  Tot=              2.3268
 Quadrupole moment (field-independent basis, Debye-Ang):
   XX=            -39.6683   YY=            -40.1437   ZZ=            -38.9637
   XY=             -1.3946   XZ=             -0.3157   YZ=              0.3260
 Traceless Quadrupole moment (field-independent basis, Debye-Ang):
   XX=             -0.0764   YY=             -0.5518   ZZ=              0.6282
   XY=             -1.3946   XZ=             -0.3157   YZ=              0.3260
 Octapole moment (field-independent basis, Debye-Ang**2):
  XXX=             -2.5044  YYY=             -2.9211  ZZZ=              0.4943  XYY=             -0.8962
  XXY=              0.6173  XXZ=             -0.3735  XZZ=             -0.8703  YZZ=             -0.2782
  YYZ=             -0.4211  XYZ=             -0.2162
 Hexadecapole moment (field-independent basis, Debye-Ang**3):
 XXXX=           -480.8343 YYYY=           -305.5459 ZZZZ=            -77.5616 XXXY=              3.4628
 XXXZ=             -4.8090 YYYX=              7.0904 YYYZ=              4.6305 ZZZX=              1.3453
 ZZZY=             -0.5410 XXYY=           -133.4686 XXZZ=            -93.4455 YYZZ=            -67.5029
 XXYZ=              0.8375 YYXZ=              0.9408 ZZXY=              0.4384
 N-N= 2.321374289053D+02 E-N=-1.922438650576D+03  KE= 6.150162870265D+02

 Test job not archived.
 1\1\GINC-TERMINUS\FOpt\RB3LYP\6-31G(d)\C4H9Cl1\FRODOX\04-Jan-2018\0\\#
 B3LYP/6-31G* fopt test\\AsymmetricEnantiomers/r-2-chlorobutane.xyz\\0,
 1\C,-0.3017544887,0.3914778473,0.3840772191\C,-0.3381329832,0.43369645
 52,1.9062727873\H,0.1675725466,1.3235306703,2.2910086695\H,0.145535972
 8,-0.4508464295,2.333452012\H,-1.3812737724,0.4548883773,2.2461514027\
 Cl,1.4573893245,0.4709928138,-0.1651601345\H,-0.7462900979,1.299998024
 7,-0.0330387241\C,-0.9812858655,-0.8442169144,-0.2059104394\H,-0.45654
 30771,-1.7397598284,0.1503982571\C,-1.0844806005,-0.8590862709,-1.7323
 89628\H,-1.9910424369,-0.8803780718,0.2291662482\H,-0.0935877334,-0.86
 10202765,-2.1959957049\H,-1.6282632191,0.0190259002,-2.1018012259\H,-1
 .6208435692,-1.7513022973,-2.0732307391\\Version=EM64L-G09RevB.01\Stat
 e=1-A\HF=-618.0570819\RMSD=2.451e-09\RMSF=2.908e-05\Dipole=-0.8677635,
 -0.111082,0.2695074\Quadrupole=-1.0062104,0.3998863,0.6063242,-0.67500
 38,-0.0279795,0.3965765\PG=C01 [X(C4H9Cl1)]\\@


 A MAN IS NEVER SO BRILLIANT AS WHEN HE TAKES THE WORDS RIGHT OUT
 OF YOUR MOUTH. -- ARNOT SHEPPARD, JR.
 Job cpu time:  0 days  0 hours  1 minutes 29.2 seconds.
 File lengths (MBytes):  RWF=      9 Int=      0 D2E=      0 Chk=      2 Scr=      1
 Normal termination of Gaussian 09 at Thu Jan  4 15:07:59 2018.
