 Entering Gaussian System, Link 0=g09
 Input=s-2-chlorobutane_rotated.inp
 Output=s-2-chlorobutane_rotated.log
 Initial command:
 /usr/local/g09/l1.exe /home/g09scr/Gau-29442.inp -scrdir=/home/g09scr/
 Entering Link 1 = /usr/local/g09/l1.exe PID=     29444.
  
 Copyright (c) 1988,1990,1992,1993,1995,1998,2003,2009,2010,
            Gaussian, Inc.  All Rights Reserved.
  
 This is part of the Gaussian(R) 09 program.  It is based on
 the Gaussian(R) 03 system (copyright 2003, Gaussian, Inc.),
 the Gaussian(R) 98 system (copyright 1998, Gaussian, Inc.),
 the Gaussian(R) 94 system (copyright 1995, Gaussian, Inc.),
 the Gaussian 92(TM) system (copyright 1992, Gaussian, Inc.),
 the Gaussian 90(TM) system (copyright 1990, Gaussian, Inc.),
 the Gaussian 88(TM) system (copyright 1988, Gaussian, Inc.),
 the Gaussian 86(TM) system (copyright 1986, Carnegie Mellon
 University), and the Gaussian 82(TM) system (copyright 1983,
 Carnegie Mellon University). Gaussian is a federally registered
 trademark of Gaussian, Inc.
  
 This software contains proprietary and confidential information,
 including trade secrets, belonging to Gaussian, Inc.
  
 This software is provided under written license and may be
 used, copied, transmitted, or stored only in accord with that
 written license.
  
 The following legend is applicable only to US Government
 contracts under FAR:
  
                    RESTRICTED RIGHTS LEGEND
  
 Use, reproduction and disclosure by the US Government is
 subject to restrictions as set forth in subparagraphs (a)
 and (c) of the Commercial Computer Software - Restricted
 Rights clause in FAR 52.227-19.
  
 Gaussian, Inc.
 340 Quinnipiac St., Bldg. 40, Wallingford CT 06492
  
  
 ---------------------------------------------------------------
 Warning -- This program may not be used in any manner that
 competes with the business of Gaussian, Inc. or will provide
 assistance to any competitor of Gaussian, Inc.  The licensee
 of this program is prohibited from giving any competitor of
 Gaussian, Inc. access to this program.  By using this program,
 the user acknowledges that Gaussian, Inc. is engaged in the
 business of creating and licensing software in the field of
 computational chemistry and represents and warrants to the
 licensee that it is not a competitor of Gaussian, Inc. and that
 it will not use this program in any manner prohibited above.
 ---------------------------------------------------------------
  

 Cite this work as:
 Gaussian 09, Revision B.01,
 M. J. Frisch, G. W. Trucks, H. B. Schlegel, G. E. Scuseria, 
 M. A. Robb, J. R. Cheeseman, G. Scalmani, V. Barone, B. Mennucci, 
 G. A. Petersson, H. Nakatsuji, M. Caricato, X. Li, H. P. Hratchian, 
 A. F. Izmaylov, J. Bloino, G. Zheng, J. L. Sonnenberg, M. Hada, 
 M. Ehara, K. Toyota, R. Fukuda, J. Hasegawa, M. Ishida, T. Nakajima, 
 Y. Honda, O. Kitao, H. Nakai, T. Vreven, J. A. Montgomery, Jr., 
 J. E. Peralta, F. Ogliaro, M. Bearpark, J. J. Heyd, E. Brothers, 
 K. N. Kudin, V. N. Staroverov, T. Keith, R. Kobayashi, J. Normand, 
 K. Raghavachari, A. Rendell, J. C. Burant, S. S. Iyengar, J. Tomasi, 
 M. Cossi, N. Rega, J. M. Millam, M. Klene, J. E. Knox, J. B. Cross, 
 V. Bakken, C. Adamo, J. Jaramillo, R. Gomperts, R. E. Stratmann, 
 O. Yazyev, A. J. Austin, R. Cammi, C. Pomelli, J. W. Ochterski, 
 R. L. Martin, K. Morokuma, V. G. Zakrzewski, G. A. Voth, 
 P. Salvador, J. J. Dannenberg, S. Dapprich, A. D. Daniels, 
 O. Farkas, J. B. Foresman, J. V. Ortiz, J. Cioslowski, 
 and D. J. Fox, Gaussian, Inc., Wallingford CT, 2010.
 
 ******************************************
 Gaussian 09:  EM64L-G09RevB.01 12-Aug-2010
                 4-Jan-2018 
 ******************************************
 %nproc=4
 Will use up to    4 processors via shared memory.
 %mem=60gb
 -----------------------
 #B3LYP/6-31G* fopt test
 -----------------------
 1/14=-1,18=20,19=15,26=3,38=1/1,3;
 2/9=110,12=2,14=103,17=6,18=5,40=1/2;
 3/5=1,6=6,7=1,11=2,16=1,25=1,30=1,71=1,74=-5/1,2,3;
 4//1;
 5/5=2,38=5/2;
 6/7=2,8=2,9=2,10=2,28=1/1;
 7//1,2,3,16;
 1/14=-1,18=20,19=15/3(2);
 2/9=110/2;
 99//99;
 2/9=110/2;
 3/5=1,6=6,7=1,11=2,16=1,25=1,30=1,71=1,74=-5/1,2,3;
 4/5=5,16=3/1;
 5/5=2,38=5/2;
 7//1,2,3,16;
 1/14=-1,18=20,19=15/3(-5);
 2/9=110/2;
 6/7=2,8=2,9=2,10=2,19=2,28=1/1;
 99/9=1/99;
 --------------------------------------------------
 AsymmetricEnantiomers/s-2-chlorobutane_rotated.xyz
 --------------------------------------------------
 Symbolic Z-matrix:
 Charge =  0 Multiplicity = 1
 C                     0.52321  -0.15427   0.37613 
 C                     0.56021  -0.16727   1.92613 
 H                     1.08721   0.72473   2.29913 
 H                     1.08721  -1.06227   2.29313 
 H                    -0.46279  -0.16727   2.33313 
 H                     1.55721  -0.13527  -0.00587 
 Cl                   -0.27979   1.32973  -0.16187 
 C                    -0.21279  -1.40527  -0.17787 
 H                     0.27521  -2.31427   0.21213 
 C                    -0.18979  -1.46027  -1.72787 
 H                    -1.25879  -1.40027   0.17213 
 H                     0.84721  -1.46627  -2.09587 
 H                    -0.71379  -0.59427  -2.16087 
 H                    -0.69079  -2.37727  -2.07887 
 

 GradGradGradGradGradGradGradGradGradGradGradGradGradGradGradGradGradGrad
 Berny optimization.
 Initialization pass.
                           ----------------------------
                           !    Initial Parameters    !
                           ! (Angstroms and Degrees)  !
 --------------------------                            --------------------------
 ! Name  Definition              Value          Derivative Info.                !
 --------------------------------------------------------------------------------
 ! R1    R(1,2)                  1.5505         estimate D2E/DX2                !
 ! R2    R(1,6)                  1.1025         estimate D2E/DX2                !
 ! R3    R(1,7)                  1.771          estimate D2E/DX2                !
 ! R4    R(1,8)                  1.5536         estimate D2E/DX2                !
 ! R5    R(2,3)                  1.1011         estimate D2E/DX2                !
 ! R6    R(2,4)                  1.1016         estimate D2E/DX2                !
 ! R7    R(2,5)                  1.101          estimate D2E/DX2                !
 ! R8    R(8,9)                  1.103          estimate D2E/DX2                !
 ! R9    R(8,10)                 1.5511         estimate D2E/DX2                !
 ! R10   R(8,11)                 1.103          estimate D2E/DX2                !
 ! R11   R(10,12)                1.1004         estimate D2E/DX2                !
 ! R12   R(10,13)                1.1009         estimate D2E/DX2                !
 ! R13   R(10,14)                1.1023         estimate D2E/DX2                !
 ! A1    A(2,1,6)              108.9139         estimate D2E/DX2                !
 ! A2    A(2,1,7)              108.7554         estimate D2E/DX2                !
 ! A3    A(2,1,8)              111.1638         estimate D2E/DX2                !
 ! A4    A(6,1,7)              107.7914         estimate D2E/DX2                !
 ! A5    A(6,1,8)              109.5507         estimate D2E/DX2                !
 ! A6    A(7,1,8)              110.5857         estimate D2E/DX2                !
 ! A7    A(1,2,3)              110.0755         estimate D2E/DX2                !
 ! A8    A(1,2,4)              110.5659         estimate D2E/DX2                !
 ! A9    A(1,2,5)              110.3269         estimate D2E/DX2                !
 ! A10   A(3,2,4)              108.442          estimate D2E/DX2                !
 ! A11   A(3,2,5)              108.6309         estimate D2E/DX2                !
 ! A12   A(4,2,5)              108.7453         estimate D2E/DX2                !
 ! A13   A(1,8,9)              109.1435         estimate D2E/DX2                !
 ! A14   A(1,8,10)             112.2012         estimate D2E/DX2                !
 ! A15   A(1,8,11)             109.4178         estimate D2E/DX2                !
 ! A16   A(9,8,10)             108.5148         estimate D2E/DX2                !
 ! A17   A(9,8,11)             108.1262         estimate D2E/DX2                !
 ! A18   A(10,8,11)            109.3477         estimate D2E/DX2                !
 ! A19   A(8,10,12)            110.3865         estimate D2E/DX2                !
 ! A20   A(8,10,13)            110.9816         estimate D2E/DX2                !
 ! A21   A(8,10,14)            109.9344         estimate D2E/DX2                !
 ! A22   A(12,10,13)           108.742          estimate D2E/DX2                !
 ! A23   A(12,10,14)           108.4995         estimate D2E/DX2                !
 ! A24   A(13,10,14)           108.2288         estimate D2E/DX2                !
 ! D1    D(6,1,2,3)             59.0678         estimate D2E/DX2                !
 ! D2    D(6,1,2,4)            -60.7244         estimate D2E/DX2                !
 ! D3    D(6,1,2,5)            178.9428         estimate D2E/DX2                !
 ! D4    D(7,1,2,3)            -58.1551         estimate D2E/DX2                !
 ! D5    D(7,1,2,4)           -177.9473         estimate D2E/DX2                !
 ! D6    D(7,1,2,5)             61.7199         estimate D2E/DX2                !
 ! D7    D(8,1,2,3)            179.8637         estimate D2E/DX2                !
 ! D8    D(8,1,2,4)             60.0714         estimate D2E/DX2                !
 ! D9    D(8,1,2,5)            -60.2614         estimate D2E/DX2                !
 ! D10   D(2,1,8,9)            -56.258          estimate D2E/DX2                !
 ! D11   D(2,1,8,10)          -176.571          estimate D2E/DX2                !
 ! D12   D(2,1,8,11)            61.877          estimate D2E/DX2                !
 ! D13   D(6,1,8,9)             64.1623         estimate D2E/DX2                !
 ! D14   D(6,1,8,10)           -56.1507         estimate D2E/DX2                !
 ! D15   D(6,1,8,11)          -177.7027         estimate D2E/DX2                !
 ! D16   D(7,1,8,9)           -177.1693         estimate D2E/DX2                !
 ! D17   D(7,1,8,10)            62.5177         estimate D2E/DX2                !
 ! D18   D(7,1,8,11)           -59.0343         estimate D2E/DX2                !
 ! D19   D(1,8,10,12)           58.4242         estimate D2E/DX2                !
 ! D20   D(1,8,10,13)          -62.2155         estimate D2E/DX2                !
 ! D21   D(1,8,10,14)          178.0843         estimate D2E/DX2                !
 ! D22   D(9,8,10,12)          -62.2528         estimate D2E/DX2                !
 ! D23   D(9,8,10,13)          177.1075         estimate D2E/DX2                !
 ! D24   D(9,8,10,14)           57.4072         estimate D2E/DX2                !
 ! D25   D(11,8,10,12)        -179.9836         estimate D2E/DX2                !
 ! D26   D(11,8,10,13)          59.3767         estimate D2E/DX2                !
 ! D27   D(11,8,10,14)         -60.3236         estimate D2E/DX2                !
 --------------------------------------------------------------------------------
 Trust Radius=3.00D-01 FncErr=1.00D-07 GrdErr=1.00D-06
 Number of steps in this run=     74 maximum allowed number of steps=    100.
 GradGradGradGradGradGradGradGradGradGradGradGradGradGradGradGradGradGrad

                          Input orientation:                          
 ---------------------------------------------------------------------
 Center     Atomic      Atomic             Coordinates (Angstroms)
 Number     Number       Type             X           Y           Z
 ---------------------------------------------------------------------
      1          6           0        0.523211   -0.154271    0.376133
      2          6           0        0.560211   -0.167271    1.926130
      3          1           0        1.087210    0.724729    2.299130
      4          1           0        1.087210   -1.062270    2.293130
      5          1           0       -0.462789   -0.167271    2.333130
      6          1           0        1.557210   -0.135271   -0.005867
      7         17           0       -0.279789    1.329730   -0.161867
      8          6           0       -0.212789   -1.405270   -0.177867
      9          1           0        0.275211   -2.314270    0.212133
     10          6           0       -0.189789   -1.460270   -1.727870
     11          1           0       -1.258790   -1.400270    0.172133
     12          1           0        0.847211   -1.466270   -2.095870
     13          1           0       -0.713789   -0.594271   -2.160870
     14          1           0       -0.690789   -2.377270   -2.078870
 ---------------------------------------------------------------------
                    Distance matrix (angstroms):
                    1          2          3          4          5
     1  C    0.000000
     2  C    1.550493   0.000000
     3  H    2.188299   1.101145   0.000000
     4  H    2.194865   1.101563   1.787009   0.000000
     5  H    2.191393   1.100990   1.788663   1.790285   0.000000
     6  H    1.102470   2.174315   2.504698   2.523017   3.090684
     7  Cl   1.771020   2.703025   2.879448   3.690171   2.915392
     8  C    1.553580   2.560659   3.516022   2.813090   2.810738
     9  H    2.180366   2.761995   3.774972   2.560741   3.106908
    10  C    2.576981   3.947919   4.756225   4.237637   4.270608
    11  H    2.183954   2.811682   3.813588   3.180658   2.612243
    12  H    2.817289   4.236302   4.916716   4.414084   4.797868
    13  H    2.856598   4.302206   4.987480   4.827084   4.521213
    14  H    3.527401   4.742270   5.652483   4.899478   4.939820
                    6          7          8          9         10
     6  H    0.000000
     7  Cl   2.354810   0.000000
     8  C    2.185264   2.735867   0.000000
     9  H    2.537535   3.704948   1.102962   0.000000
    10  C    2.787996   3.200713   1.551149   2.170058   0.000000
    11  H    3.092210   2.919400   1.103015   1.786101   2.180911
    12  H    2.577551   3.581635   2.192272   2.524513   1.100377
    13  H    3.164199   2.808229   2.200232   3.093164   1.100917
    14  H    3.791754   4.193527   2.187940   2.487131   1.102312
                   11         12         13         14
    11  H    0.000000
    12  H    3.095712   0.000000
    13  H    2.527759   1.789226   0.000000
    14  H    2.518763   1.787639   1.785032   0.000000
 Stoichiometry    C4H9Cl
 Framework group  C1[X(C4H9Cl)]
 Deg. of freedom    36
 Full point group                 C1      NOp   1
 Largest Abelian subgroup         C1      NOp   1
 Largest concise Abelian subgroup C1      NOp   1
                         Standard orientation:                         
 ---------------------------------------------------------------------
 Center     Atomic      Atomic             Coordinates (Angstroms)
 Number     Number       Type             X           Y           Z
 ---------------------------------------------------------------------
      1          6           0        0.295283    0.399318    0.374708
      2          6           0        1.416774    1.396825   -0.014224
      3          1           0        2.356906    1.123942    0.489966
      4          1           0        1.144844    2.421159    0.286165
      5          1           0        1.583406    1.379678   -1.102395
      6          1           0        0.161032    0.421354    1.468751
      7         17           0        0.806311   -1.235663   -0.074959
      8          6           0       -1.045255    0.763369   -0.321018
      9          1           0       -1.314859    1.801966   -0.065764
     10          6           0       -2.205144   -0.168565    0.117409
     11          1           0       -0.919536    0.700452   -1.415038
     12          1           0       -2.345745   -0.118690    1.207626
     13          1           0       -2.000365   -1.212633   -0.165447
     14          1           0       -3.142919    0.143365   -0.370821
 ---------------------------------------------------------------------
 Rotational constants (GHZ):      4.6125621      3.1129694      2.0167130
 Standard basis: 6-31G(d) (6D, 7F)
 There are    97 symmetry adapted basis functions of A   symmetry.
 Integral buffers will be    131072 words long.
 Raffenetti 2 integral format.
 Two-electron integral symmetry is turned on.
    97 basis functions,   200 primitive gaussians,    97 cartesian basis functions
    25 alpha electrons       25 beta electrons
       nuclear repulsion energy       233.5114659115 Hartrees.
 NAtoms=   14 NActive=   14 NUniq=   14 SFac= 1.00D+00 NAtFMM=   50 NAOKFM=F Big=F
 One-electron integrals computed using PRISM.
 NBasis=    97 RedAO= T  NBF=    97
 NBsUse=    97 1.00D-06 NBFU=    97
 Harris functional with IExCor=  402 diagonalized for initial guess.
 ExpMin= 1.43D-01 ExpMax= 2.52D+04 ExpMxC= 3.78D+03 IAcc=1 IRadAn=         1 AccDes= 0.00D+00
 HarFok:  IExCor=  402 AccDes= 0.00D+00 IRadAn=         1 IDoV= 1
 ScaDFX=  1.000000  1.000000  1.000000  1.000000
 FoFCou: FMM=F IPFlag=           0 FMFlag=      100000 FMFlg1=           0
         NFxFlg=           0 DoJE=T BraDBF=F KetDBF=T FulRan=T
         Omega=  0.000000  0.000000  1.000000  0.000000  0.000000 ICntrl=     500 IOpCl=  0
         NMat0=    1 NMatS0=    1 NMatT0=    0 NMatD0=    1 NMtDS0=    0 NMtDT0=    0
         I1Cent=           4 NGrid=           0.
 Petite list used in FoFCou.
 Initial guess orbital symmetries:
       Occupied  (A) (A) (A) (A) (A) (A) (A) (A) (A) (A) (A) (A)
                 (A) (A) (A) (A) (A) (A) (A) (A) (A) (A) (A) (A)
                 (A)
       Virtual   (A) (A) (A) (A) (A) (A) (A) (A) (A) (A) (A) (A)
                 (A) (A) (A) (A) (A) (A) (A) (A) (A) (A) (A) (A)
                 (A) (A) (A) (A) (A) (A) (A) (A) (A) (A) (A) (A)
                 (A) (A) (A) (A) (A) (A) (A) (A) (A) (A) (A) (A)
                 (A) (A) (A) (A) (A) (A) (A) (A) (A) (A) (A) (A)
                 (A) (A) (A) (A) (A) (A) (A) (A) (A) (A) (A) (A)
 The electronic state of the initial guess is 1-A.
 Requested convergence on RMS density matrix=1.00D-08 within 128 cycles.
 Requested convergence on MAX density matrix=1.00D-06.
 Requested convergence on             energy=1.00D-06.
 No special actions if energy rises.
 Keep R1 ints in memory in canonical form, NReq=12379521.
 Integral accuracy reduced to 1.0D-05 until final iterations.
 Initial convergence to 1.0D-05 achieved.  Increase integral accuracy.
 SCF Done:  E(RB3LYP) =  -618.053926185     A.U. after   12 cycles
             Convg  =    0.7274D-08             -V/T =  2.0051

 **********************************************************************

            Population analysis using the SCF density.

 **********************************************************************

 Orbital symmetries:
       Occupied  (A) (A) (A) (A) (A) (A) (A) (A) (A) (A) (A) (A)
                 (A) (A) (A) (A) (A) (A) (A) (A) (A) (A) (A) (A)
                 (A)
       Virtual   (A) (A) (A) (A) (A) (A) (A) (A) (A) (A) (A) (A)
                 (A) (A) (A) (A) (A) (A) (A) (A) (A) (A) (A) (A)
                 (A) (A) (A) (A) (A) (A) (A) (A) (A) (A) (A) (A)
                 (A) (A) (A) (A) (A) (A) (A) (A) (A) (A) (A) (A)
                 (A) (A) (A) (A) (A) (A) (A) (A) (A) (A) (A) (A)
                 (A) (A) (A) (A) (A) (A) (A) (A) (A) (A) (A) (A)
 The electronic state is 1-A.
 Alpha  occ. eigenvalues -- -101.52748 -10.24909 -10.19701 -10.18987 -10.17899
 Alpha  occ. eigenvalues --   -9.44483  -7.20844  -7.19903  -7.19895  -0.86654
 Alpha  occ. eigenvalues --   -0.76431  -0.72435  -0.63460  -0.57721  -0.47833
 Alpha  occ. eigenvalues --   -0.44514  -0.43261  -0.42119  -0.38614  -0.37250
 Alpha  occ. eigenvalues --   -0.35416  -0.34649  -0.34222  -0.28976  -0.28764
 Alpha virt. eigenvalues --    0.04545   0.08853   0.11798   0.12315   0.15388
 Alpha virt. eigenvalues --    0.15968   0.17044   0.17541   0.17649   0.19152
 Alpha virt. eigenvalues --    0.21394   0.22248   0.23657   0.39938   0.44091
 Alpha virt. eigenvalues --    0.46286   0.48344   0.49354   0.51193   0.55011
 Alpha virt. eigenvalues --    0.56670   0.58660   0.61309   0.62425   0.64516
 Alpha virt. eigenvalues --    0.70524   0.73506   0.77422   0.82763   0.85313
 Alpha virt. eigenvalues --    0.87450   0.89065   0.89141   0.89817   0.91041
 Alpha virt. eigenvalues --    0.91809   0.92696   0.96408   0.96970   0.97794
 Alpha virt. eigenvalues --    0.99478   1.04378   1.10402   1.16563   1.37065
 Alpha virt. eigenvalues --    1.43814   1.44511   1.50352   1.62722   1.67612
 Alpha virt. eigenvalues --    1.83743   1.85072   1.86976   1.93431   1.96577
 Alpha virt. eigenvalues --    1.98474   2.04499   2.14744   2.21230   2.23630
 Alpha virt. eigenvalues --    2.27409   2.33276   2.36904   2.37420   2.51340
 Alpha virt. eigenvalues --    2.62707   2.71893   4.08122   4.21678   4.28225
 Alpha virt. eigenvalues --    4.36934   4.49671
          Condensed to atoms (all electrons):
              1          2          3          4          5          6
     1  C    5.091037   0.355095  -0.030736  -0.026476  -0.035341   0.371031
     2  C    0.355095   5.132908   0.372283   0.358904   0.376572  -0.043571
     3  H   -0.030736   0.372283   0.551325  -0.028437  -0.027779  -0.003142
     4  H   -0.026476   0.358904  -0.028437   0.570135  -0.028002  -0.001460
     5  H   -0.035341   0.376572  -0.027779  -0.028002   0.547967   0.004890
     6  H    0.371031  -0.043571  -0.003142  -0.001460   0.004890   0.587901
     7  Cl   0.237428  -0.069757   0.000183   0.005402   0.000300  -0.051456
     8  C    0.360218  -0.045755   0.004429  -0.002609  -0.005242  -0.044772
     9  H   -0.031711  -0.003129  -0.000027   0.002891  -0.000094  -0.001808
    10  C   -0.046101   0.004243  -0.000146  -0.000038   0.000014  -0.003914
    11  H   -0.039783  -0.003862  -0.000059  -0.000028   0.004436   0.005375
    12  H   -0.004931   0.000045   0.000000   0.000001   0.000007   0.005171
    13  H   -0.006359   0.000099   0.000003  -0.000005   0.000004  -0.000061
    14  H    0.004416  -0.000121   0.000002  -0.000006   0.000002  -0.000046
              7          8          9         10         11         12
     1  C    0.237428   0.360218  -0.031711  -0.046101  -0.039783  -0.004931
     2  C   -0.069757  -0.045755  -0.003129   0.004243  -0.003862   0.000045
     3  H    0.000183   0.004429  -0.000027  -0.000146  -0.000059   0.000000
     4  H    0.005402  -0.002609   0.002891  -0.000038  -0.000028   0.000001
     5  H    0.000300  -0.005242  -0.000094   0.000014   0.004436   0.000007
     6  H   -0.051456  -0.044772  -0.001808  -0.003914   0.005375   0.005171
     7  Cl  17.012996  -0.065050   0.005204  -0.008006  -0.000060  -0.000027
     8  C   -0.065050   5.031323   0.364724   0.369780   0.374667  -0.036472
     9  H    0.005204   0.364724   0.593642  -0.037862  -0.032918  -0.003442
    10  C   -0.008006   0.369780  -0.037862   5.077930  -0.036329   0.376596
    11  H   -0.000060   0.374667  -0.032918  -0.036329   0.578393   0.004786
    12  H   -0.000027  -0.036472  -0.003442   0.376596   0.004786   0.575417
    13  H    0.009217  -0.031601   0.004502   0.379820  -0.003709  -0.029191
    14  H    0.000023  -0.028732  -0.002814   0.370955  -0.002507  -0.029989
             13         14
     1  C   -0.006359   0.004416
     2  C    0.000099  -0.000121
     3  H    0.000003   0.000002
     4  H   -0.000005  -0.000006
     5  H    0.000004   0.000002
     6  H   -0.000061  -0.000046
     7  Cl   0.009217   0.000023
     8  C   -0.031601  -0.028732
     9  H    0.004502  -0.002814
    10  C    0.379820   0.370955
    11  H   -0.003709  -0.002507
    12  H   -0.029191  -0.029989
    13  H    0.535994  -0.028381
    14  H   -0.028381   0.573304
 Mulliken atomic charges:
              1
     1  C   -0.197788
     2  C   -0.433954
     3  H    0.162099
     4  H    0.149728
     5  H    0.162266
     6  H    0.175863
     7  Cl  -0.076398
     8  C   -0.244907
     9  H    0.142842
    10  C   -0.446940
    11  H    0.151598
    12  H    0.142028
    13  H    0.169670
    14  H    0.143894
 Sum of Mulliken atomic charges =   0.00000
 Mulliken charges with hydrogens summed into heavy atoms:
              1
     1  C   -0.021926
     2  C    0.040140
     7  Cl  -0.076398
     8  C    0.049532
    10  C    0.008652
 Sum of Mulliken charges with hydrogens summed into heavy atoms =   0.00000
 Electronic spatial extent (au):  <R**2>=            646.9615
 Charge=              0.0000 electrons
 Dipole moment (field-independent basis, Debye):
    X=             -0.6443    Y=              1.8510    Z=              0.3576  Tot=              1.9923
 Quadrupole moment (field-independent basis, Debye-Ang):
   XX=            -39.8124   YY=            -40.1834   ZZ=            -38.9391
   XY=              0.9683   XZ=              0.3352   YZ=              0.3884
 Traceless Quadrupole moment (field-independent basis, Debye-Ang):
   XX=             -0.1675   YY=             -0.5384   ZZ=              0.7059
   XY=              0.9683   XZ=              0.3352   YZ=              0.3884
 Octapole moment (field-independent basis, Debye-Ang**2):
  XXX=              3.2269  YYY=             -3.9137  ZZZ=              0.4842  XYY=              0.7105
  XXY=              0.2229  XXZ=             -0.4559  XZZ=              0.9519  YZZ=             -0.5759
  YYZ=             -0.5256  XYZ=              0.1914
 Hexadecapole moment (field-independent basis, Debye-Ang**3):
 XXXX=           -481.8807 YYYY=           -296.0590 ZZZZ=            -78.3852 XXXY=             -5.3848
 XXXZ=              5.0519 YYYX=             -7.2358 YYYZ=              5.2561 ZZZX=             -1.4181
 ZZZY=             -0.3294 XXYY=           -132.2782 XXZZ=            -93.2586 YYZZ=            -66.2419
 XXYZ=              0.6448 YYXZ=             -0.8117 ZZXY=             -0.7280
 N-N= 2.335114659115D+02 E-N=-1.925100762997D+03  KE= 6.149387258629D+02
 Calling FoFJK, ICntrl=      2127 FMM=F ISym2X=0 I1Cent= 0 IOpClX= 0 NMat=1 NMatS=1 NMatT=0.
 ***** Axes restored to original set *****
 -------------------------------------------------------------------
 Center     Atomic                   Forces (Hartrees/Bohr)
 Number     Number              X              Y              Z
 -------------------------------------------------------------------
      1        6           0.005847093   -0.031607539    0.020984180
      2        6           0.001563274    0.003679301   -0.005598300
      3        1          -0.002615854   -0.003925018   -0.000156515
      4        1          -0.001688112    0.002385416   -0.002294331
      5        1           0.004041203   -0.000011991   -0.001270724
      6        1          -0.005648183    0.001883782   -0.000639875
      7       17          -0.007242194    0.018370541   -0.007514694
      8        6           0.002719879    0.007877836   -0.013583912
      9        1          -0.000893389    0.004680119    0.001934400
     10        6          -0.003484818   -0.002809652    0.006248522
     11        1           0.004793021   -0.000106961    0.000966342
     12        1          -0.003067251   -0.000122840   -0.000490560
     13        1           0.002950199   -0.004032479    0.001316265
     14        1           0.002725131    0.003739487    0.000099202
 -------------------------------------------------------------------
 Cartesian Forces:  Max     0.031607539 RMS     0.007681716

 GradGradGradGradGradGradGradGradGradGradGradGradGradGradGradGradGradGrad
 Berny optimization.
 Internal  Forces:  Max     0.020958120 RMS     0.003947025
 Search for a local minimum.
 Step number   1 out of a maximum of   74
 All quantities printed in internal units (Hartrees-Bohrs-Radians)
 Mixed Optimization -- RFO/linear search
 Second derivative matrix not updated -- first step.
 ITU=  0
     Eigenvalues ---    0.00230   0.00230   0.00230   0.03525   0.04363
     Eigenvalues ---    0.04792   0.05028   0.05479   0.05530   0.05585
     Eigenvalues ---    0.05594   0.08137   0.08997   0.12074   0.16000
     Eigenvalues ---    0.16000   0.16000   0.16000   0.16000   0.16000
     Eigenvalues ---    0.16520   0.21960   0.23269   0.27349   0.27554
     Eigenvalues ---    0.27609   0.28539   0.33351   0.33357   0.33410
     Eigenvalues ---    0.33428   0.33510   0.33556   0.33573   0.33581
     Eigenvalues ---    0.33640
 RFO step:  Lambda=-4.37113747D-03 EMin= 2.30000000D-03
 Linear search not attempted -- first point.
 Iteration  1 RMS(Cart)=  0.03833190 RMS(Int)=  0.00074466
 Iteration  2 RMS(Cart)=  0.00105989 RMS(Int)=  0.00026391
 Iteration  3 RMS(Cart)=  0.00000051 RMS(Int)=  0.00026391
 Variable       Old X    -DE/DX   Delta X   Delta X   Delta X     New X
                                 (Linear)    (Quad)   (Total)
    R1        2.93001  -0.00930   0.00000  -0.03315  -0.03315   2.89686
    R2        2.08337  -0.00504   0.00000  -0.01490  -0.01490   2.06847
    R3        3.34674   0.02096   0.00000   0.07233   0.07233   3.41907
    R4        2.93584  -0.00891   0.00000  -0.03206  -0.03206   2.90378
    R5        2.08086  -0.00449   0.00000  -0.01320  -0.01320   2.06766
    R6        2.08165  -0.00351   0.00000  -0.01033  -0.01033   2.07132
    R7        2.08057  -0.00422   0.00000  -0.01242  -0.01242   2.06815
    R8        2.08430  -0.00357   0.00000  -0.01056  -0.01056   2.07373
    R9        2.93125  -0.00706   0.00000  -0.02523  -0.02523   2.90602
   R10        2.08440  -0.00424   0.00000  -0.01255  -0.01255   2.07185
   R11        2.07941  -0.00272   0.00000  -0.00799  -0.00799   2.07142
   R12        2.08043  -0.00509   0.00000  -0.01497  -0.01497   2.06547
   R13        2.08307  -0.00438   0.00000  -0.01295  -0.01295   2.07012
    A1        1.90091   0.00025   0.00000   0.00310   0.00322   1.90413
    A2        1.89814   0.00014   0.00000   0.01187   0.01148   1.90961
    A3        1.94017   0.00197   0.00000   0.01951   0.01924   1.95941
    A4        1.88131  -0.00165   0.00000  -0.03503  -0.03497   1.84634
    A5        1.91202  -0.00134   0.00000  -0.01294  -0.01296   1.89906
    A6        1.93009   0.00054   0.00000   0.01185   0.01141   1.94150
    A7        1.92118   0.00248   0.00000   0.01742   0.01743   1.93861
    A8        1.92974  -0.00225   0.00000  -0.01545  -0.01544   1.91430
    A9        1.92557   0.00035   0.00000   0.00150   0.00144   1.92701
   A10        1.89267   0.00001   0.00000   0.00125   0.00132   1.89399
   A11        1.89597  -0.00105   0.00000  -0.00297  -0.00304   1.89293
   A12        1.89796   0.00045   0.00000  -0.00179  -0.00184   1.89612
   A13        1.90491  -0.00495   0.00000  -0.04123  -0.04161   1.86331
   A14        1.95828   0.00849   0.00000   0.04369   0.04355   2.00183
   A15        1.90970  -0.00320   0.00000  -0.01391  -0.01501   1.89469
   A16        1.89394  -0.00049   0.00000   0.00756   0.00823   1.90217
   A17        1.88716   0.00085   0.00000  -0.01513  -0.01588   1.87128
   A18        1.90848  -0.00092   0.00000   0.01701   0.01690   1.92538
   A19        1.92661   0.00158   0.00000   0.00853   0.00851   1.93511
   A20        1.93699   0.00046   0.00000   0.00304   0.00301   1.94001
   A21        1.91872   0.00161   0.00000   0.01062   0.01058   1.92929
   A22        1.89791  -0.00127   0.00000  -0.00930  -0.00931   1.88860
   A23        1.89367  -0.00168   0.00000  -0.01065  -0.01070   1.88298
   A24        1.88895  -0.00083   0.00000  -0.00297  -0.00300   1.88594
    D1        1.03093  -0.00059   0.00000  -0.00998  -0.01006   1.02087
    D2       -1.05984  -0.00076   0.00000  -0.01288  -0.01289  -1.07273
    D3        3.12314  -0.00009   0.00000  -0.00160  -0.00164   3.12150
    D4       -1.01500   0.00117   0.00000   0.02352   0.02357  -0.99142
    D5       -3.10577   0.00100   0.00000   0.02061   0.02074  -3.08503
    D6        1.07722   0.00167   0.00000   0.03189   0.03199   1.10921
    D7        3.13921  -0.00086   0.00000  -0.01175  -0.01184   3.12737
    D8        1.04844  -0.00103   0.00000  -0.01466  -0.01468   1.03377
    D9       -1.05176  -0.00036   0.00000  -0.00338  -0.00342  -1.05518
   D10       -0.98189   0.00239   0.00000   0.06848   0.06810  -0.91379
   D11       -3.08175   0.00091   0.00000   0.05886   0.05910  -3.02265
   D12        1.07996  -0.00135   0.00000   0.01795   0.01841   1.09837
   D13        1.11984   0.00307   0.00000   0.07631   0.07579   1.19563
   D14       -0.98001   0.00159   0.00000   0.06670   0.06678  -0.91323
   D15       -3.10150  -0.00066   0.00000   0.02579   0.02610  -3.07540
   D16       -3.09219   0.00054   0.00000   0.03240   0.03185  -3.06033
   D17        1.09114  -0.00095   0.00000   0.02278   0.02285   1.11399
   D18       -1.03034  -0.00320   0.00000  -0.01813  -0.01783  -1.04818
   D19        1.01970  -0.00076   0.00000  -0.01588  -0.01601   1.00368
   D20       -1.08586  -0.00053   0.00000  -0.01186  -0.01197  -1.09784
   D21        3.10816  -0.00083   0.00000  -0.01698  -0.01710   3.09106
   D22       -1.08652   0.00040   0.00000   0.00303   0.00286  -1.08366
   D23        3.09111   0.00064   0.00000   0.00705   0.00690   3.09801
   D24        1.00195   0.00033   0.00000   0.00194   0.00178   1.00372
   D25       -3.14131   0.00018   0.00000   0.00728   0.00755  -3.13375
   D26        1.03632   0.00042   0.00000   0.01130   0.01159   1.04791
   D27       -1.05285   0.00011   0.00000   0.00619   0.00647  -1.04638
         Item               Value     Threshold  Converged?
 Maximum Force            0.020958     0.000450     NO 
 RMS     Force            0.003947     0.000300     NO 
 Maximum Displacement     0.115825     0.001800     NO 
 RMS     Displacement     0.038215     0.001200     NO 
 Predicted change in Energy=-2.273661D-03
 GradGradGradGradGradGradGradGradGradGradGradGradGradGradGradGradGradGrad

                          Input orientation:                          
 ---------------------------------------------------------------------
 Center     Atomic      Atomic             Coordinates (Angstroms)
 Number     Number       Type             X           Y           Z
 ---------------------------------------------------------------------
      1          6           0        0.498802   -0.147076    0.388707
      2          6           0        0.566926   -0.182870    1.919724
      3          1           0        1.096915    0.690968    2.310497
      4          1           0        1.097008   -1.085565    2.244653
      5          1           0       -0.440809   -0.196314    2.346387
      6          1           0        1.515915   -0.113371   -0.014358
      7         17           0       -0.292327    1.391022   -0.142251
      8          6           0       -0.223357   -1.373387   -0.190802
      9          1           0        0.259768   -2.258736    0.241598
     10          6           0       -0.180625   -1.478933   -1.724381
     11          1           0       -1.261580   -1.365674    0.161443
     12          1           0        0.854001   -1.495408   -2.086063
     13          1           0       -0.692602   -0.634206   -2.192313
     14          1           0       -0.669083   -2.400238   -2.060002
 ---------------------------------------------------------------------
                    Distance matrix (angstroms):
                    1          2          3          4          5
     1  C    0.000000
     2  C    1.532950   0.000000
     3  H    2.180215   1.094159   0.000000
     4  H    2.164058   1.096095   1.777753   0.000000
     5  H    2.172051   1.094419   1.775712   1.779326   0.000000
     6  H    1.094585   2.155477   2.495491   2.494749   3.067372
     7  Cl   1.809294   2.732616   2.904487   3.709588   2.955504
     8  C    1.536614   2.548764   3.501597   2.785255   2.805373
     9  H    2.130231   2.686945   3.698907   2.467697   3.028949
    10  C    2.588552   3.939303   4.756135   4.188116   4.275975
    11  H    2.153038   2.798931   3.796144   3.159298   2.610565
    12  H    2.840537   4.225103   4.916197   4.356848   4.796957
    13  H    2.884164   4.324229   5.023321   4.805527   4.566722
    14  H    3.526595   4.720451   5.636983   4.835028   4.932105
                    6          7          8          9         10
     6  H    0.000000
     7  Cl   2.355694   0.000000
     8  C    2.154957   2.765695   0.000000
     9  H    2.499201   3.711183   1.097371   0.000000
    10  C    2.768968   3.279063   1.537800   2.160350   0.000000
    11  H    3.051827   2.937866   1.096377   1.765923   2.176608
    12  H    2.576842   3.663871   2.183484   2.520673   1.096147
    13  H    3.145203   2.909385   2.184633   3.077341   1.092997
    14  H    3.766780   4.265368   2.178762   2.485991   1.095461
                   11         12         13         14
    11  H    0.000000
    12  H    3.089304   0.000000
    13  H    2.529614   1.773397   0.000000
    14  H    2.521149   1.771774   1.771137   0.000000
 Stoichiometry    C4H9Cl
 Framework group  C1[X(C4H9Cl)]
 Deg. of freedom    36
 Full point group                 C1      NOp   1
 Largest Abelian subgroup         C1      NOp   1
 Largest concise Abelian subgroup C1      NOp   1
                         Standard orientation:                         
 ---------------------------------------------------------------------
 Center     Atomic      Atomic             Coordinates (Angstroms)
 Number     Number       Type             X           Y           Z
 ---------------------------------------------------------------------
      1          6           0        0.267596    0.423458    0.352396
      2          6           0        1.315465    1.483359   -0.006092
      3          1           0        2.265301    1.284243    0.499229
      4          1           0        0.958912    2.473466    0.300474
      5          1           0        1.493147    1.494454   -1.085935
      6          1           0        0.121740    0.416581    1.437199
      7         17           0        0.903130   -1.217230   -0.069249
      8          6           0       -1.084673    0.688275   -0.327621
      9          1           0       -1.359216    1.724555   -0.093155
     10          6           0       -2.222535   -0.244284    0.120075
     11          1           0       -0.947109    0.626789   -1.413594
     12          1           0       -2.373279   -0.183983    1.204131
     13          1           0       -2.004696   -1.284007   -0.137149
     14          1           0       -3.163131    0.035971   -0.366517
 ---------------------------------------------------------------------
 Rotational constants (GHZ):      4.5680465      3.0505462      1.9773876
 Standard basis: 6-31G(d) (6D, 7F)
 There are    97 symmetry adapted basis functions of A   symmetry.
 Integral buffers will be    131072 words long.
 Raffenetti 2 integral format.
 Two-electron integral symmetry is turned on.
    97 basis functions,   200 primitive gaussians,    97 cartesian basis functions
    25 alpha electrons       25 beta electrons
       nuclear repulsion energy       232.5317576855 Hartrees.
 NAtoms=   14 NActive=   14 NUniq=   14 SFac= 1.00D+00 NAtFMM=   50 NAOKFM=F Big=F
 One-electron integrals computed using PRISM.
 NBasis=    97 RedAO= T  NBF=    97
 NBsUse=    97 1.00D-06 NBFU=    97
 Initial guess read from the read-write file.
 B after Tr=     0.000000    0.000000    0.000000
         Rot=    1.000000    0.000000    0.000000    0.000000 Ang=   0.00 deg.
 Initial guess orbital symmetries:
       Occupied  (A) (A) (A) (A) (A) (A) (A) (A) (A) (A) (A) (A)
                 (A) (A) (A) (A) (A) (A) (A) (A) (A) (A) (A) (A)
                 (A)
       Virtual   (A) (A) (A) (A) (A) (A) (A) (A) (A) (A) (A) (A)
                 (A) (A) (A) (A) (A) (A) (A) (A) (A) (A) (A) (A)
                 (A) (A) (A) (A) (A) (A) (A) (A) (A) (A) (A) (A)
                 (A) (A) (A) (A) (A) (A) (A) (A) (A) (A) (A) (A)
                 (A) (A) (A) (A) (A) (A) (A) (A) (A) (A) (A) (A)
                 (A) (A) (A) (A) (A) (A) (A) (A) (A) (A) (A) (A)
 Harris functional with IExCor=  402 diagonalized for initial guess.
 ExpMin= 1.43D-01 ExpMax= 2.52D+04 ExpMxC= 3.78D+03 IAcc=1 IRadAn=         1 AccDes= 0.00D+00
 HarFok:  IExCor=  402 AccDes= 0.00D+00 IRadAn=         1 IDoV= 1
 ScaDFX=  1.000000  1.000000  1.000000  1.000000
 FoFCou: FMM=F IPFlag=           0 FMFlag=      100000 FMFlg1=           0
         NFxFlg=           0 DoJE=T BraDBF=F KetDBF=T FulRan=T
         Omega=  0.000000  0.000000  1.000000  0.000000  0.000000 ICntrl=     500 IOpCl=  0
         NMat0=    1 NMatS0=    1 NMatT0=    0 NMatD0=    1 NMtDS0=    0 NMtDT0=    0
         I1Cent=           4 NGrid=           0.
 Petite list used in FoFCou.
 Requested convergence on RMS density matrix=1.00D-08 within 128 cycles.
 Requested convergence on MAX density matrix=1.00D-06.
 Requested convergence on             energy=1.00D-06.
 No special actions if energy rises.
 Keep R1 ints in memory in canonical form, NReq=12379667.
 Integral accuracy reduced to 1.0D-05 until final iterations.
 Initial convergence to 1.0D-05 achieved.  Increase integral accuracy.
 SCF Done:  E(RB3LYP) =  -618.056541631     A.U. after   11 cycles
             Convg  =    0.6334D-08             -V/T =  2.0049
 Calling FoFJK, ICntrl=      2127 FMM=F ISym2X=0 I1Cent= 0 IOpClX= 0 NMat=1 NMatS=1 NMatT=0.
 ***** Axes restored to original set *****
 -------------------------------------------------------------------
 Center     Atomic                   Forces (Hartrees/Bohr)
 Number     Number              X              Y              Z
 -------------------------------------------------------------------
      1        6           0.005572870   -0.013958096    0.006967395
      2        6          -0.001210876    0.002456816   -0.003561107
      3        1          -0.000228796   -0.000312987    0.000094180
      4        1           0.000086453   -0.000262482   -0.000135840
      5        1          -0.000104195   -0.000177358    0.000850143
      6        1          -0.000289759    0.002513818   -0.001318748
      7       17          -0.003173560    0.006286551   -0.002832990
      8        6           0.000047949    0.004152550   -0.004945783
      9        1           0.000123406   -0.000474313    0.001323819
     10        6          -0.000584263    0.000012356    0.004221091
     11        1          -0.000539225   -0.000922428    0.000254592
     12        1           0.000192572    0.000048106   -0.000513901
     13        1           0.000000615    0.000612634   -0.000458810
     14        1           0.000106808    0.000024832    0.000055958
 -------------------------------------------------------------------
 Cartesian Forces:  Max     0.013958096 RMS     0.003182401

 GradGradGradGradGradGradGradGradGradGradGradGradGradGradGradGradGradGrad
 Berny optimization.
 Using GEDIIS/GDIIS optimizer.
 Internal  Forces:  Max     0.007561733 RMS     0.001273755
 Search for a local minimum.
 Step number   2 out of a maximum of   74
 All quantities printed in internal units (Hartrees-Bohrs-Radians)
 Mixed Optimization -- RFO/linear search
 Update second derivatives using D2CorX and points    1    2
 DE= -2.62D-03 DEPred=-2.27D-03 R= 1.15D+00
 SS=  1.41D+00  RLast= 2.04D-01 DXNew= 5.0454D-01 6.1240D-01
 Trust test= 1.15D+00 RLast= 2.04D-01 DXMaxT set to 5.05D-01
 ITU=  1  0
 Use linear search instead of GDIIS.
     Eigenvalues ---    0.00230   0.00230   0.00241   0.03274   0.04015
     Eigenvalues ---    0.04732   0.04885   0.05420   0.05473   0.05496
     Eigenvalues ---    0.05619   0.08532   0.09193   0.12299   0.15611
     Eigenvalues ---    0.16000   0.16000   0.16000   0.16000   0.16111
     Eigenvalues ---    0.16963   0.20827   0.23063   0.23586   0.27433
     Eigenvalues ---    0.27631   0.27886   0.33351   0.33372   0.33419
     Eigenvalues ---    0.33473   0.33524   0.33547   0.33576   0.33634
     Eigenvalues ---    0.35572
 RFO step:  Lambda=-6.67804572D-04 EMin= 2.29879351D-03
 Quartic linear search produced a step of  0.28128.
 Iteration  1 RMS(Cart)=  0.01733846 RMS(Int)=  0.00028188
 Iteration  2 RMS(Cart)=  0.00035573 RMS(Int)=  0.00015691
 Iteration  3 RMS(Cart)=  0.00000007 RMS(Int)=  0.00015691
 Variable       Old X    -DE/DX   Delta X   Delta X   Delta X     New X
                                 (Linear)    (Quad)   (Total)
    R1        2.89686  -0.00285  -0.00932  -0.00944  -0.01877   2.87809
    R2        2.06847   0.00030  -0.00419   0.00282  -0.00137   2.06710
    R3        3.41907   0.00756   0.02034   0.02566   0.04600   3.46507
    R4        2.90378  -0.00243  -0.00902  -0.00770  -0.01672   2.88706
    R5        2.06766  -0.00033  -0.00371   0.00025  -0.00346   2.06420
    R6        2.07132   0.00022  -0.00291   0.00202  -0.00089   2.07043
    R7        2.06815   0.00043  -0.00349   0.00304  -0.00045   2.06770
    R8        2.07373   0.00096  -0.00297   0.00487   0.00190   2.07563
    R9        2.90602  -0.00335  -0.00710  -0.01268  -0.01978   2.88625
   R10        2.07185   0.00059  -0.00353   0.00368   0.00015   2.07200
   R11        2.07142   0.00035  -0.00225   0.00223  -0.00001   2.07140
   R12        2.06547   0.00067  -0.00421   0.00426   0.00005   2.06552
   R13        2.07012  -0.00009  -0.00364   0.00114  -0.00250   2.06762
    A1        1.90413   0.00024   0.00091   0.02018   0.02056   1.92469
    A2        1.90961  -0.00017   0.00323  -0.00961  -0.00633   1.90329
    A3        1.95941   0.00150   0.00541   0.01064   0.01559   1.97501
    A4        1.84634  -0.00070  -0.00984  -0.02303  -0.03268   1.81366
    A5        1.89906   0.00044  -0.00364   0.02089   0.01660   1.91567
    A6        1.94150  -0.00143   0.00321  -0.01998  -0.01678   1.92471
    A7        1.93861   0.00023   0.00490   0.00026   0.00514   1.94374
    A8        1.91430  -0.00059  -0.00434  -0.00423  -0.00855   1.90575
    A9        1.92701   0.00112   0.00041   0.00960   0.00997   1.93698
   A10        1.89399   0.00004   0.00037  -0.00150  -0.00110   1.89290
   A11        1.89293  -0.00050  -0.00085  -0.00116  -0.00209   1.89084
   A12        1.89612  -0.00033  -0.00052  -0.00320  -0.00371   1.89241
   A13        1.86331  -0.00052  -0.01170  -0.00119  -0.01305   1.85026
   A14        2.00183  -0.00031   0.01225  -0.00466   0.00753   2.00937
   A15        1.89469   0.00063  -0.00422   0.00725   0.00267   1.89736
   A16        1.90217   0.00088   0.00232   0.00968   0.01222   1.91439
   A17        1.87128  -0.00043  -0.00447  -0.00768  -0.01238   1.85890
   A18        1.92538  -0.00028   0.00475  -0.00368   0.00102   1.92639
   A19        1.93511   0.00053   0.00239   0.00294   0.00532   1.94044
   A20        1.94001   0.00017   0.00085   0.00101   0.00185   1.94186
   A21        1.92929  -0.00014   0.00297  -0.00192   0.00104   1.93034
   A22        1.88860  -0.00043  -0.00262  -0.00310  -0.00572   1.88288
   A23        1.88298  -0.00020  -0.00301  -0.00035  -0.00337   1.87961
   A24        1.88594   0.00004  -0.00084   0.00131   0.00046   1.88640
    D1        1.02087  -0.00095  -0.00283  -0.01290  -0.01592   1.00495
    D2       -1.07273  -0.00076  -0.00363  -0.00844  -0.01223  -1.08496
    D3        3.12150  -0.00068  -0.00046  -0.00780  -0.00840   3.11310
    D4       -0.99142  -0.00016   0.00663   0.00872   0.01538  -0.97605
    D5       -3.08503   0.00003   0.00583   0.01318   0.01907  -3.06596
    D6        1.10921   0.00011   0.00900   0.01383   0.02290   1.13211
    D7        3.12737   0.00075  -0.00333   0.03403   0.03079  -3.12503
    D8        1.03377   0.00093  -0.00413   0.03849   0.03448   1.06824
    D9       -1.05518   0.00101  -0.00096   0.03913   0.03831  -1.01688
   D10       -0.91379  -0.00030   0.01916  -0.04126  -0.02236  -0.93615
   D11       -3.02265  -0.00085   0.01662  -0.04975  -0.03315  -3.05580
   D12        1.09837  -0.00076   0.00518  -0.04725  -0.04204   1.05633
   D13        1.19563   0.00128   0.02132   0.00514   0.02638   1.22202
   D14       -0.91323   0.00072   0.01879  -0.00334   0.01559  -0.89764
   D15       -3.07540   0.00081   0.00734  -0.00084   0.00670  -3.06869
   D16       -3.06033  -0.00012   0.00896  -0.02170  -0.01291  -3.07324
   D17        1.11399  -0.00067   0.00643  -0.03018  -0.02370   1.09029
   D18       -1.04818  -0.00058  -0.00502  -0.02768  -0.03259  -1.08077
   D19        1.00368  -0.00020  -0.00450   0.01408   0.00955   1.01324
   D20       -1.09784  -0.00012  -0.00337   0.01535   0.01196  -1.08588
   D21        3.09106  -0.00019  -0.00481   0.01430   0.00947   3.10053
   D22       -1.08366   0.00003   0.00080   0.01166   0.01239  -1.07126
   D23        3.09801   0.00011   0.00194   0.01292   0.01480   3.11281
   D24        1.00372   0.00004   0.00050   0.01188   0.01231   1.01603
   D25       -3.13375   0.00019   0.00213   0.01735   0.01956  -3.11420
   D26        1.04791   0.00027   0.00326   0.01861   0.02196   1.06987
   D27       -1.04638   0.00020   0.00182   0.01756   0.01947  -1.02690
         Item               Value     Threshold  Converged?
 Maximum Force            0.007562     0.000450     NO 
 RMS     Force            0.001274     0.000300     NO 
 Maximum Displacement     0.050096     0.001800     NO 
 RMS     Displacement     0.017360     0.001200     NO 
 Predicted change in Energy=-4.722449D-04
 GradGradGradGradGradGradGradGradGradGradGradGradGradGradGradGradGradGrad

                          Input orientation:                          
 ---------------------------------------------------------------------
 Center     Atomic      Atomic             Coordinates (Angstroms)
 Number     Number       Type             X           Y           Z
 ---------------------------------------------------------------------
      1          6           0        0.512928   -0.169617    0.395001
      2          6           0        0.559816   -0.182066    1.917247
      3          1           0        1.070405    0.701455    2.306951
      4          1           0        1.102158   -1.072641    2.253598
      5          1           0       -0.448951   -0.211190    2.340060
      6          1           0        1.525375   -0.111279   -0.014976
      7         17           0       -0.280505    1.385131   -0.166646
      8          6           0       -0.213869   -1.377638   -0.193656
      9          1           0        0.269290   -2.263208    0.240803
     10          6           0       -0.185929   -1.471982   -1.717819
     11          1           0       -1.248303   -1.377258    0.169883
     12          1           0        0.843229   -1.501321   -2.093974
     13          1           0       -0.686858   -0.615955   -2.177154
     14          1           0       -0.689836   -2.382216   -2.056480
 ---------------------------------------------------------------------
                    Distance matrix (angstroms):
                    1          2          3          4          5
     1  C    0.000000
     2  C    1.523019   0.000000
     3  H    2.173729   1.092328   0.000000
     4  H    2.148727   1.095623   1.775182   0.000000
     5  H    2.170298   1.094181   1.772699   1.776377   0.000000
     6  H    1.093861   2.161204   2.501775   2.499952   3.074759
     7  Cl   1.833638   2.739500   2.900181   3.716179   2.976607
     8  C    1.527765   2.546349   3.496430   2.795354   2.799211
     9  H    2.113352   2.688126   3.701348   2.482431   3.022173
    10  C    2.578481   3.928578   4.743519   4.194138   4.257365
    11  H    2.147326   2.784072   3.776839   3.155840   2.590047
    12  H    2.842100   4.232098   4.926660   4.376323   4.795293
    13  H    2.873097   4.301927   4.993069   4.800074   4.541548
    14  H    3.514541   4.710924   5.625567   4.847990   4.909272
                    6          7          8          9         10
     6  H    0.000000
     7  Cl   2.350202   0.000000
     8  C    2.158833   2.763705   0.000000
     9  H    2.504789   3.711963   1.098376   0.000000
    10  C    2.771235   3.252412   1.527335   2.160893   0.000000
    11  H    3.054531   2.946299   1.096456   1.758699   2.168186
    12  H    2.592252   3.648148   2.178064   2.522114   1.096139
    13  H    3.134275   2.865591   2.176728   3.078015   1.093024
    14  H    3.772539   4.234612   2.169294   2.492307   1.094139
                   11         12         13         14
    11  H    0.000000
    12  H    3.084631   0.000000
    13  H    2.530491   1.769735   0.000000
    14  H    2.505697   1.768523   1.770382   0.000000
 Stoichiometry    C4H9Cl
 Framework group  C1[X(C4H9Cl)]
 Deg. of freedom    36
 Full point group                 C1      NOp   1
 Largest Abelian subgroup         C1      NOp   1
 Largest concise Abelian subgroup C1      NOp   1
                         Standard orientation:                         
 ---------------------------------------------------------------------
 Center     Atomic      Atomic             Coordinates (Angstroms)
 Number     Number       Type             X           Y           Z
 ---------------------------------------------------------------------
      1          6           0        0.268451    0.443868    0.357414
      2          6           0        1.329587    1.471847   -0.012501
      3          1           0        2.283657    1.250762    0.471288
      4          1           0        0.998019    2.464434    0.311883
      5          1           0        1.490042    1.497290   -1.094554
      6          1           0        0.138006    0.407487    1.442860
      7         17           0        0.882601   -1.230345   -0.069269
      8          6           0       -1.078330    0.701438   -0.316309
      9          1           0       -1.344483    1.739291   -0.074537
     10          6           0       -2.207660   -0.232786    0.113333
     11          1           0       -0.941426    0.660080   -1.403398
     12          1           0       -2.374423   -0.180959    1.195472
     13          1           0       -1.981773   -1.271270   -0.142067
     14          1           0       -3.144124    0.042541   -0.381005
 ---------------------------------------------------------------------
 Rotational constants (GHZ):      4.5322876      3.0861160      1.9840611
 Standard basis: 6-31G(d) (6D, 7F)
 There are    97 symmetry adapted basis functions of A   symmetry.
 Integral buffers will be    131072 words long.
 Raffenetti 2 integral format.
 Two-electron integral symmetry is turned on.
    97 basis functions,   200 primitive gaussians,    97 cartesian basis functions
    25 alpha electrons       25 beta electrons
       nuclear repulsion energy       232.6517350925 Hartrees.
 NAtoms=   14 NActive=   14 NUniq=   14 SFac= 1.00D+00 NAtFMM=   50 NAOKFM=F Big=F
 One-electron integrals computed using PRISM.
 NBasis=    97 RedAO= T  NBF=    97
 NBsUse=    97 1.00D-06 NBFU=    97
 Initial guess read from the read-write file.
 B after Tr=     0.000000    0.000000    0.000000
         Rot=    1.000000    0.000000    0.000000    0.000000 Ang=   0.00 deg.
 Initial guess orbital symmetries:
       Occupied  (A) (A) (A) (A) (A) (A) (A) (A) (A) (A) (A) (A)
                 (A) (A) (A) (A) (A) (A) (A) (A) (A) (A) (A) (A)
                 (A)
       Virtual   (A) (A) (A) (A) (A) (A) (A) (A) (A) (A) (A) (A)
                 (A) (A) (A) (A) (A) (A) (A) (A) (A) (A) (A) (A)
                 (A) (A) (A) (A) (A) (A) (A) (A) (A) (A) (A) (A)
                 (A) (A) (A) (A) (A) (A) (A) (A) (A) (A) (A) (A)
                 (A) (A) (A) (A) (A) (A) (A) (A) (A) (A) (A) (A)
                 (A) (A) (A) (A) (A) (A) (A) (A) (A) (A) (A) (A)
 Harris functional with IExCor=  402 diagonalized for initial guess.
 ExpMin= 1.43D-01 ExpMax= 2.52D+04 ExpMxC= 3.78D+03 IAcc=1 IRadAn=         1 AccDes= 0.00D+00
 HarFok:  IExCor=  402 AccDes= 0.00D+00 IRadAn=         1 IDoV= 1
 ScaDFX=  1.000000  1.000000  1.000000  1.000000
 FoFCou: FMM=F IPFlag=           0 FMFlag=      100000 FMFlg1=           0
         NFxFlg=           0 DoJE=T BraDBF=F KetDBF=T FulRan=T
         Omega=  0.000000  0.000000  1.000000  0.000000  0.000000 ICntrl=     500 IOpCl=  0
         NMat0=    1 NMatS0=    1 NMatT0=    0 NMatD0=    1 NMtDS0=    0 NMtDT0=    0
         I1Cent=           4 NGrid=           0.
 Petite list used in FoFCou.
 Requested convergence on RMS density matrix=1.00D-08 within 128 cycles.
 Requested convergence on MAX density matrix=1.00D-06.
 Requested convergence on             energy=1.00D-06.
 No special actions if energy rises.
 Keep R1 ints in memory in canonical form, NReq=12379667.
 Integral accuracy reduced to 1.0D-05 until final iterations.
 Initial convergence to 1.0D-05 achieved.  Increase integral accuracy.
 SCF Done:  E(RB3LYP) =  -618.057020328     A.U. after   10 cycles
             Convg  =    0.6882D-08             -V/T =  2.0049
 Calling FoFJK, ICntrl=      2127 FMM=F ISym2X=0 I1Cent= 0 IOpClX= 0 NMat=1 NMatS=1 NMatT=0.
 ***** Axes restored to original set *****
 -------------------------------------------------------------------
 Center     Atomic                   Forces (Hartrees/Bohr)
 Number     Number              X              Y              Z
 -------------------------------------------------------------------
      1        6           0.001413073   -0.001784767    0.000137011
      2        6          -0.000235088    0.000458259   -0.000534638
      3        1           0.000518430    0.000523412    0.000202044
      4        1           0.000426284   -0.000711610    0.000713315
      5        1          -0.000514936   -0.000085321    0.000082375
      6        1           0.000393333    0.000188188    0.000104207
      7       17          -0.001448837    0.002703607   -0.000433181
      8        6          -0.000318813    0.000514821    0.000989232
      9        1           0.000117621   -0.001298481   -0.000083772
     10        6           0.000577165   -0.000191383   -0.000648048
     11        1          -0.000698501   -0.000057430    0.000167146
     12        1           0.000515852    0.000007671   -0.000249300
     13        1          -0.000350638    0.000421393   -0.000192815
     14        1          -0.000394943   -0.000688360   -0.000253576
 -------------------------------------------------------------------
 Cartesian Forces:  Max     0.002703607 RMS     0.000745305

 GradGradGradGradGradGradGradGradGradGradGradGradGradGradGradGradGradGrad
 Berny optimization.
 Using GEDIIS/GDIIS optimizer.
 Internal  Forces:  Max     0.003049724 RMS     0.000575708
 Search for a local minimum.
 Step number   3 out of a maximum of   74
 All quantities printed in internal units (Hartrees-Bohrs-Radians)
 Mixed Optimization -- En-DIIS/RFO-DIIS
 Update second derivatives using D2CorX and points    1    2    3
 DE= -4.79D-04 DEPred=-4.72D-04 R= 1.01D+00
 SS=  1.41D+00  RLast= 1.41D-01 DXNew= 8.4853D-01 4.2175D-01
 Trust test= 1.01D+00 RLast= 1.41D-01 DXMaxT set to 5.05D-01
 ITU=  1  1  0
 Use linear search instead of GDIIS.
     Eigenvalues ---    0.00230   0.00230   0.00248   0.03161   0.03769
     Eigenvalues ---    0.04682   0.04931   0.05393   0.05403   0.05469
     Eigenvalues ---    0.05642   0.08770   0.09613   0.12596   0.15210
     Eigenvalues ---    0.16000   0.16000   0.16000   0.16111   0.16127
     Eigenvalues ---    0.17223   0.17854   0.22936   0.23400   0.27466
     Eigenvalues ---    0.27652   0.29475   0.33350   0.33369   0.33446
     Eigenvalues ---    0.33474   0.33530   0.33575   0.33631   0.33689
     Eigenvalues ---    0.36815
 RFO step:  Lambda=-1.16547594D-04 EMin= 2.29711666D-03
 Quartic linear search produced a step of  0.03484.
 Iteration  1 RMS(Cart)=  0.01703329 RMS(Int)=  0.00010060
 Iteration  2 RMS(Cart)=  0.00013951 RMS(Int)=  0.00000825
 Iteration  3 RMS(Cart)=  0.00000001 RMS(Int)=  0.00000825
 Variable       Old X    -DE/DX   Delta X   Delta X   Delta X     New X
                                 (Linear)    (Quad)   (Total)
    R1        2.87809   0.00047  -0.00065  -0.00038  -0.00104   2.87705
    R2        2.06710   0.00034  -0.00005   0.00070   0.00065   2.06775
    R3        3.46507   0.00305   0.00160   0.01608   0.01769   3.48276
    R4        2.88706   0.00139  -0.00058   0.00328   0.00270   2.88976
    R5        2.06420   0.00074  -0.00012   0.00176   0.00164   2.06584
    R6        2.07043   0.00101  -0.00003   0.00288   0.00284   2.07327
    R7        2.06770   0.00051  -0.00002   0.00134   0.00132   2.06902
    R8        2.07563   0.00106   0.00007   0.00329   0.00336   2.07899
    R9        2.88625   0.00138  -0.00069   0.00303   0.00234   2.88859
   R10        2.07200   0.00072   0.00001   0.00204   0.00205   2.07405
   R11        2.07140   0.00057   0.00000   0.00162   0.00162   2.07302
   R12        2.06552   0.00057   0.00000   0.00155   0.00155   2.06706
   R13        2.06762   0.00083  -0.00009   0.00215   0.00207   2.06969
    A1        1.92469  -0.00022   0.00072  -0.00005   0.00062   1.92531
    A2        1.90329  -0.00067  -0.00022  -0.00562  -0.00584   1.89745
    A3        1.97501   0.00033   0.00054   0.00247   0.00299   1.97800
    A4        1.81366   0.00018  -0.00114  -0.00145  -0.00258   1.81108
    A5        1.91567   0.00007   0.00058   0.00413   0.00468   1.92034
    A6        1.92471   0.00029  -0.00058   0.00012  -0.00046   1.92425
    A7        1.94374  -0.00015   0.00018  -0.00035  -0.00017   1.94358
    A8        1.90575   0.00065  -0.00030   0.00336   0.00306   1.90881
    A9        1.93698  -0.00025   0.00035  -0.00080  -0.00045   1.93653
   A10        1.89290  -0.00025  -0.00004  -0.00153  -0.00157   1.89132
   A11        1.89084   0.00018  -0.00007   0.00061   0.00053   1.89138
   A12        1.89241  -0.00019  -0.00013  -0.00138  -0.00151   1.89091
   A13        1.85026   0.00059  -0.00045   0.00386   0.00341   1.85367
   A14        2.00937  -0.00006   0.00026   0.00137   0.00163   2.01100
   A15        1.89736  -0.00002   0.00009   0.00109   0.00118   1.89854
   A16        1.91439  -0.00056   0.00043  -0.00466  -0.00423   1.91016
   A17        1.85890  -0.00005  -0.00043  -0.00245  -0.00289   1.85601
   A18        1.92639   0.00011   0.00004   0.00058   0.00061   1.92700
   A19        1.94044   0.00012   0.00019   0.00162   0.00180   1.94224
   A20        1.94186  -0.00010   0.00006  -0.00059  -0.00052   1.94134
   A21        1.93034  -0.00002   0.00004   0.00002   0.00005   1.93039
   A22        1.88288   0.00001  -0.00020  -0.00032  -0.00052   1.88236
   A23        1.87961  -0.00002  -0.00012  -0.00025  -0.00037   1.87924
   A24        1.88640   0.00000   0.00002  -0.00053  -0.00051   1.88589
    D1        1.00495  -0.00016  -0.00055  -0.01590  -0.01646   0.98850
    D2       -1.08496  -0.00017  -0.00043  -0.01596  -0.01639  -1.10135
    D3        3.11310  -0.00020  -0.00029  -0.01590  -0.01620   3.09690
    D4       -0.97605   0.00012   0.00054  -0.01103  -0.01050  -0.98655
    D5       -3.06596   0.00010   0.00066  -0.01110  -0.01043  -3.07639
    D6        1.13211   0.00008   0.00080  -0.01104  -0.01024   1.12186
    D7       -3.12503   0.00000   0.00107  -0.00875  -0.00767  -3.13270
    D8        1.06824  -0.00001   0.00120  -0.00881  -0.00761   1.06064
    D9       -1.01688  -0.00004   0.00133  -0.00876  -0.00742  -1.02429
   D10       -0.93615  -0.00025  -0.00078   0.02648   0.02569  -0.91046
   D11       -3.05580   0.00007  -0.00115   0.02873   0.02757  -3.02823
   D12        1.05633  -0.00002  -0.00146   0.02609   0.02461   1.08094
   D13        1.22202  -0.00025   0.00092   0.03129   0.03222   1.25424
   D14       -0.89764   0.00007   0.00054   0.03355   0.03410  -0.86354
   D15       -3.06869  -0.00002   0.00023   0.03090   0.03115  -3.03755
   D16       -3.07324   0.00016  -0.00045   0.03195   0.03150  -3.04175
   D17        1.09029   0.00048  -0.00083   0.03420   0.03337   1.12366
   D18       -1.08077   0.00040  -0.00114   0.03155   0.03042  -1.05035
   D19        1.01324   0.00007   0.00033  -0.00758  -0.00725   1.00599
   D20       -1.08588   0.00005   0.00042  -0.00787  -0.00745  -1.09333
   D21        3.10053   0.00012   0.00033  -0.00683  -0.00650   3.09403
   D22       -1.07126  -0.00024   0.00043  -0.01006  -0.00962  -1.08089
   D23        3.11281  -0.00027   0.00052  -0.01035  -0.00983   3.10298
   D24        1.01603  -0.00020   0.00043  -0.00930  -0.00887   1.00716
   D25       -3.11420   0.00009   0.00068  -0.00462  -0.00394  -3.11813
   D26        1.06987   0.00006   0.00077  -0.00491  -0.00414   1.06573
   D27       -1.02690   0.00013   0.00068  -0.00386  -0.00318  -1.03009
         Item               Value     Threshold  Converged?
 Maximum Force            0.003050     0.000450     NO 
 RMS     Force            0.000576     0.000300     NO 
 Maximum Displacement     0.047020     0.001800     NO 
 RMS     Displacement     0.017038     0.001200     NO 
 Predicted change in Energy=-5.953932D-05
 GradGradGradGradGradGradGradGradGradGradGradGradGradGradGradGradGradGrad

                          Input orientation:                          
 ---------------------------------------------------------------------
 Center     Atomic      Atomic             Coordinates (Angstroms)
 Number     Number       Type             X           Y           Z
 ---------------------------------------------------------------------
      1          6           0        0.506397   -0.165940    0.395898
      2          6           0        0.568425   -0.184767    1.916987
      3          1           0        1.088297    0.695070    2.305188
      4          1           0        1.109447   -1.079985    2.248000
      5          1           0       -0.437040   -0.210224    2.349598
      6          1           0        1.514112   -0.094745   -0.024495
      7         17           0       -0.305387    1.398235   -0.143548
      8          6           0       -0.223708   -1.372466   -0.195437
      9          1           0        0.245609   -2.263104    0.248231
     10          6           0       -0.177619   -1.478894   -1.719606
     11          1           0       -1.263303   -1.363582    0.156349
     12          1           0        0.856072   -1.512884   -2.085294
     13          1           0       -0.672307   -0.624991   -2.191439
     14          1           0       -0.680044   -2.391510   -2.057594
 ---------------------------------------------------------------------
                    Distance matrix (angstroms):
                    1          2          3          4          5
     1  C    0.000000
     2  C    1.522470   0.000000
     3  H    2.173784   1.093197   0.000000
     4  H    2.151611   1.097128   1.776102   0.000000
     5  H    2.170018   1.094879   1.774311   1.777197   0.000000
     6  H    1.094207   2.161430   2.496507   2.509718   3.075166
     7  Cl   1.842997   2.741395   2.903980   3.723282   2.969890
     8  C    1.529194   2.549595   3.499883   2.798791   2.805979
     9  H    2.118469   2.684854   3.700268   2.478923   3.015969
    10  C    2.582069   3.931432   4.746328   4.190175   4.270275
    11  H    2.150248   2.800835   3.792832   3.175747   2.612142
    12  H    2.844791   4.226687   4.919890   4.362228   4.799721
    13  H    2.879997   4.314206   5.006190   4.805235   4.566005
    14  H    3.518583   4.714413   5.629198   4.843606   4.923454
                    6          7          8          9         10
     6  H    0.000000
     7  Cl   2.356637   0.000000
     8  C    2.163749   2.772390   0.000000
     9  H    2.526908   3.723237   1.100153   0.000000
    10  C    2.766085   3.283010   1.528576   2.160206   0.000000
    11  H    3.058870   2.938566   1.097538   1.759090   2.170533
    12  H    2.586702   3.687001   2.181101   2.526031   1.096995
    13  H    3.123657   2.902056   2.178069   3.078632   1.093844
    14  H    3.771332   4.262172   2.171249   2.488002   1.095233
                   11         12         13         14
    11  H    0.000000
    12  H    3.088527   0.000000
    13  H    2.531186   1.770752   0.000000
    14  H    2.509656   1.769860   1.771600   0.000000
 Stoichiometry    C4H9Cl
 Framework group  C1[X(C4H9Cl)]
 Deg. of freedom    36
 Full point group                 C1      NOp   1
 Largest Abelian subgroup         C1      NOp   1
 Largest concise Abelian subgroup C1      NOp   1
                         Standard orientation:                         
 ---------------------------------------------------------------------
 Center     Atomic      Atomic             Coordinates (Angstroms)
 Number     Number       Type             X           Y           Z
 ---------------------------------------------------------------------
      1          6           0        0.255673    0.448572    0.356294
      2          6           0        1.300181    1.495050   -0.006752
      3          1           0        2.251991    1.297824    0.493487
      4          1           0        0.945533    2.485903    0.303291
      5          1           0        1.475838    1.514543   -1.087272
      6          1           0        0.121401    0.406439    1.441413
      7         17           0        0.916206   -1.218607   -0.068966
      8          6           0       -1.092129    0.674725   -0.329795
      9          1           0       -1.373129    1.717202   -0.118569
     10          6           0       -2.217010   -0.256853    0.121147
     11          1           0       -0.951361    0.606893   -1.416153
     12          1           0       -2.385955   -0.182732    1.202518
     13          1           0       -1.984398   -1.300127   -0.111158
     14          1           0       -3.155721    0.001419   -0.380502
 ---------------------------------------------------------------------
 Rotational constants (GHZ):      4.5344401      3.0479644      1.9711417
 Standard basis: 6-31G(d) (6D, 7F)
 There are    97 symmetry adapted basis functions of A   symmetry.
 Integral buffers will be    131072 words long.
 Raffenetti 2 integral format.
 Two-electron integral symmetry is turned on.
    97 basis functions,   200 primitive gaussians,    97 cartesian basis functions
    25 alpha electrons       25 beta electrons
       nuclear repulsion energy       232.0777971694 Hartrees.
 NAtoms=   14 NActive=   14 NUniq=   14 SFac= 1.00D+00 NAtFMM=   50 NAOKFM=F Big=F
 One-electron integrals computed using PRISM.
 NBasis=    97 RedAO= T  NBF=    97
 NBsUse=    97 1.00D-06 NBFU=    97
 Initial guess read from the read-write file.
 B after Tr=     0.000000    0.000000    0.000000
         Rot=    1.000000    0.000000    0.000000    0.000000 Ang=   0.00 deg.
 Initial guess orbital symmetries:
       Occupied  (A) (A) (A) (A) (A) (A) (A) (A) (A) (A) (A) (A)
                 (A) (A) (A) (A) (A) (A) (A) (A) (A) (A) (A) (A)
                 (A)
       Virtual   (A) (A) (A) (A) (A) (A) (A) (A) (A) (A) (A) (A)
                 (A) (A) (A) (A) (A) (A) (A) (A) (A) (A) (A) (A)
                 (A) (A) (A) (A) (A) (A) (A) (A) (A) (A) (A) (A)
                 (A) (A) (A) (A) (A) (A) (A) (A) (A) (A) (A) (A)
                 (A) (A) (A) (A) (A) (A) (A) (A) (A) (A) (A) (A)
                 (A) (A) (A) (A) (A) (A) (A) (A) (A) (A) (A) (A)
 Harris functional with IExCor=  402 diagonalized for initial guess.
 ExpMin= 1.43D-01 ExpMax= 2.52D+04 ExpMxC= 3.78D+03 IAcc=1 IRadAn=         1 AccDes= 0.00D+00
 HarFok:  IExCor=  402 AccDes= 0.00D+00 IRadAn=         1 IDoV= 1
 ScaDFX=  1.000000  1.000000  1.000000  1.000000
 FoFCou: FMM=F IPFlag=           0 FMFlag=      100000 FMFlg1=           0
         NFxFlg=           0 DoJE=T BraDBF=F KetDBF=T FulRan=T
         Omega=  0.000000  0.000000  1.000000  0.000000  0.000000 ICntrl=     500 IOpCl=  0
         NMat0=    1 NMatS0=    1 NMatT0=    0 NMatD0=    1 NMtDS0=    0 NMtDT0=    0
         I1Cent=           4 NGrid=           0.
 Petite list used in FoFCou.
 Requested convergence on RMS density matrix=1.00D-08 within 128 cycles.
 Requested convergence on MAX density matrix=1.00D-06.
 Requested convergence on             energy=1.00D-06.
 No special actions if energy rises.
 Keep R1 ints in memory in canonical form, NReq=12379667.
 Integral accuracy reduced to 1.0D-05 until final iterations.
 Initial convergence to 1.0D-05 achieved.  Increase integral accuracy.
 SCF Done:  E(RB3LYP) =  -618.057069862     A.U. after   11 cycles
             Convg  =    0.7317D-08             -V/T =  2.0049
 Calling FoFJK, ICntrl=      2127 FMM=F ISym2X=0 I1Cent= 0 IOpClX= 0 NMat=1 NMatS=1 NMatT=0.
 ***** Axes restored to original set *****
 -------------------------------------------------------------------
 Center     Atomic                   Forces (Hartrees/Bohr)
 Number     Number              X              Y              Z
 -------------------------------------------------------------------
      1        6           0.000312693   -0.000408641   -0.000574374
      2        6          -0.000149678    0.000043456    0.000415288
      3        1           0.000088157    0.000129081   -0.000040969
      4        1           0.000051020   -0.000044946    0.000118011
      5        1          -0.000056067   -0.000045812   -0.000040841
      6        1          -0.000046479   -0.000036369    0.000024892
      7       17          -0.000249503    0.000141292   -0.000233293
      8        6          -0.000055418   -0.000230101    0.001231384
      9        1           0.000034562   -0.000090820   -0.000233848
     10        6           0.000212062    0.000312883   -0.000744389
     11        1           0.000067677    0.000134481   -0.000088601
     12        1           0.000023286   -0.000008067    0.000161407
     13        1          -0.000117762    0.000158815   -0.000025721
     14        1          -0.000114551   -0.000055251    0.000031053
 -------------------------------------------------------------------
 Cartesian Forces:  Max     0.001231384 RMS     0.000285826

 GradGradGradGradGradGradGradGradGradGradGradGradGradGradGradGradGradGrad
 Berny optimization.
 Using GEDIIS/GDIIS optimizer.
 Internal  Forces:  Max     0.000826320 RMS     0.000201182
 Search for a local minimum.
 Step number   4 out of a maximum of   74
 All quantities printed in internal units (Hartrees-Bohrs-Radians)
 Mixed Optimization -- En-DIIS/RFO-DIIS
 Swaping is turned off.
 Update second derivatives using D2CorX and points    1    2    3    4
 DE= -4.95D-05 DEPred=-5.95D-05 R= 8.32D-01
 SS=  1.41D+00  RLast= 1.02D-01 DXNew= 8.4853D-01 3.0718D-01
 Trust test= 8.32D-01 RLast= 1.02D-01 DXMaxT set to 5.05D-01
 ITU=  1  1  1  0
     Eigenvalues ---    0.00230   0.00230   0.00331   0.03276   0.03448
     Eigenvalues ---    0.04782   0.04945   0.05387   0.05404   0.05463
     Eigenvalues ---    0.05627   0.08705   0.09763   0.12562   0.14243
     Eigenvalues ---    0.15994   0.16000   0.16000   0.16008   0.16115
     Eigenvalues ---    0.16361   0.17550   0.22957   0.24075   0.27597
     Eigenvalues ---    0.27661   0.29123   0.33342   0.33387   0.33420
     Eigenvalues ---    0.33475   0.33540   0.33567   0.33616   0.33754
     Eigenvalues ---    0.35628
 En-DIIS/RFO-DIIS IScMMF=        0 using points:     4    3
 RFO step:  Lambda=-6.56027475D-06.
 DidBck=F Rises=F RFO-DIIS coefs:    0.88896    0.11104
 Iteration  1 RMS(Cart)=  0.01102973 RMS(Int)=  0.00004312
 Iteration  2 RMS(Cart)=  0.00006177 RMS(Int)=  0.00000115
 Iteration  3 RMS(Cart)=  0.00000000 RMS(Int)=  0.00000115
 Variable       Old X    -DE/DX   Delta X   Delta X   Delta X     New X
                                  (DIIS)     (GDIIS)  (Total)
    R1        2.87705   0.00045   0.00012   0.00086   0.00097   2.87802
    R2        2.06775  -0.00005  -0.00007  -0.00031  -0.00039   2.06737
    R3        3.48276   0.00030  -0.00196   0.00670   0.00473   3.48749
    R4        2.88976  -0.00032  -0.00030  -0.00052  -0.00082   2.88894
    R5        2.06584   0.00013  -0.00018   0.00061   0.00042   2.06627
    R6        2.07327   0.00010  -0.00032   0.00087   0.00055   2.07382
    R7        2.06902   0.00003  -0.00015   0.00016   0.00002   2.06904
    R8        2.07899  -0.00001  -0.00037   0.00065   0.00027   2.07926
    R9        2.88859   0.00055  -0.00026   0.00247   0.00221   2.89080
   R10        2.07405  -0.00009  -0.00023   0.00003  -0.00020   2.07385
   R11        2.07302  -0.00003  -0.00018   0.00018   0.00000   2.07303
   R12        2.06706   0.00019  -0.00017   0.00055   0.00038   2.06744
   R13        2.06969   0.00009  -0.00023   0.00060   0.00037   2.07006
    A1        1.92531  -0.00007  -0.00007   0.00077   0.00070   1.92601
    A2        1.89745   0.00003   0.00065  -0.00157  -0.00092   1.89653
    A3        1.97800   0.00038  -0.00033   0.00226   0.00193   1.97993
    A4        1.81108   0.00010   0.00029  -0.00066  -0.00038   1.81070
    A5        1.92034  -0.00006  -0.00052   0.00097   0.00045   1.92080
    A6        1.92425  -0.00041   0.00005  -0.00209  -0.00204   1.92222
    A7        1.94358  -0.00015   0.00002  -0.00063  -0.00061   1.94296
    A8        1.90881   0.00017  -0.00034   0.00184   0.00150   1.91031
    A9        1.93653  -0.00008   0.00005  -0.00092  -0.00087   1.93566
   A10        1.89132  -0.00001   0.00017  -0.00045  -0.00027   1.89105
   A11        1.89138   0.00010  -0.00006   0.00055   0.00049   1.89187
   A12        1.89091  -0.00003   0.00017  -0.00040  -0.00023   1.89068
   A13        1.85367   0.00043  -0.00038   0.00373   0.00335   1.85702
   A14        2.01100  -0.00083  -0.00018  -0.00249  -0.00267   2.00832
   A15        1.89854   0.00019  -0.00013  -0.00096  -0.00109   1.89745
   A16        1.91016   0.00013   0.00047  -0.00045   0.00002   1.91018
   A17        1.85601  -0.00005   0.00032   0.00101   0.00133   1.85734
   A18        1.92700   0.00018  -0.00007  -0.00042  -0.00049   1.92651
   A19        1.94224  -0.00019  -0.00020  -0.00042  -0.00062   1.94162
   A20        1.94134  -0.00004   0.00006  -0.00038  -0.00032   1.94101
   A21        1.93039  -0.00005  -0.00001  -0.00002  -0.00003   1.93036
   A22        1.88236   0.00013   0.00006   0.00053   0.00058   1.88294
   A23        1.87924   0.00013   0.00004   0.00047   0.00051   1.87975
   A24        1.88589   0.00004   0.00006  -0.00013  -0.00007   1.88581
    D1        0.98850   0.00000   0.00183  -0.00138   0.00044   0.98894
    D2       -1.10135   0.00000   0.00182  -0.00163   0.00019  -1.10116
    D3        3.09690  -0.00002   0.00180  -0.00174   0.00006   3.09696
    D4       -0.98655  -0.00009   0.00117  -0.00014   0.00103  -0.98552
    D5       -3.07639  -0.00010   0.00116  -0.00039   0.00077  -3.07562
    D6        1.12186  -0.00012   0.00114  -0.00050   0.00064   1.12250
    D7       -3.13270   0.00015   0.00085   0.00215   0.00300  -3.12970
    D8        1.06064   0.00015   0.00084   0.00190   0.00275   1.06338
    D9       -1.02429   0.00013   0.00082   0.00179   0.00262  -1.02168
   D10       -0.91046  -0.00022  -0.00285  -0.01679  -0.01964  -0.93010
   D11       -3.02823  -0.00018  -0.00306  -0.01737  -0.02043  -3.04866
   D12        1.08094   0.00003  -0.00273  -0.01420  -0.01694   1.06401
   D13        1.25424  -0.00007  -0.00358  -0.01338  -0.01696   1.23728
   D14       -0.86354  -0.00003  -0.00379  -0.01396  -0.01774  -0.88128
   D15       -3.03755   0.00018  -0.00346  -0.01079  -0.01425  -3.05180
   D16       -3.04175  -0.00022  -0.00350  -0.01480  -0.01830  -3.06005
   D17        1.12366  -0.00018  -0.00371  -0.01538  -0.01908   1.10458
   D18       -1.05035   0.00003  -0.00338  -0.01221  -0.01559  -1.06594
   D19        1.00599   0.00012   0.00081   0.00454   0.00534   1.01133
   D20       -1.09333   0.00012   0.00083   0.00441   0.00524  -1.08809
   D21        3.09403   0.00013   0.00072   0.00484   0.00556   3.09960
   D22       -1.08089   0.00002   0.00107   0.00172   0.00279  -1.07810
   D23        3.10298   0.00002   0.00109   0.00159   0.00268   3.10566
   D24        1.00716   0.00003   0.00098   0.00203   0.00301   1.01017
   D25       -3.11813  -0.00010   0.00044   0.00101   0.00145  -3.11668
   D26        1.06573  -0.00011   0.00046   0.00089   0.00135   1.06708
   D27       -1.03009  -0.00010   0.00035   0.00132   0.00167  -1.02841
[...]
   D26        1.06564   0.00000   0.00002   0.00022   0.00024   1.06588
   D27       -1.02993   0.00000   0.00001   0.00016   0.00018  -1.02975
         Item               Value     Threshold  Converged?
 Maximum Force            0.000041     0.000450     YES
 RMS     Force            0.000014     0.000300     YES
 Maximum Displacement     0.000527     0.001800     YES
 RMS     Displacement     0.000190     0.001200     YES
 Predicted change in Energy=-4.458187D-08
 Optimization completed.
    -- Stationary point found.
                           ----------------------------
                           !   Optimized Parameters   !
                           ! (Angstroms and Degrees)  !
 --------------------------                            --------------------------
 ! Name  Definition              Value          Derivative Info.                !
 --------------------------------------------------------------------------------
 ! R1    R(1,2)                  1.5232         -DE/DX =    0.0                 !
 ! R2    R(1,6)                  1.0941         -DE/DX =    0.0                 !
 ! R3    R(1,7)                  1.8446         -DE/DX =    0.0                 !
 ! R4    R(1,8)                  1.5287         -DE/DX =    0.0                 !
 ! R5    R(2,3)                  1.0934         -DE/DX =    0.0                 !
 ! R6    R(2,4)                  1.0973         -DE/DX =    0.0                 !
 ! R7    R(2,5)                  1.0949         -DE/DX =    0.0                 !
 ! R8    R(8,9)                  1.1001         -DE/DX =    0.0                 !
 ! R9    R(8,10)                 1.53           -DE/DX =    0.0                 !
 ! R10   R(8,11)                 1.0974         -DE/DX =    0.0                 !
 ! R11   R(10,12)                1.0969         -DE/DX =    0.0                 !
 ! R12   R(10,13)                1.094          -DE/DX =    0.0                 !
 ! R13   R(10,14)                1.0954         -DE/DX =    0.0                 !
 ! A1    A(2,1,6)              110.3819         -DE/DX =    0.0                 !
 ! A2    A(2,1,7)              108.6101         -DE/DX =    0.0                 !
 ! A3    A(2,1,8)              113.4211         -DE/DX =    0.0                 !
 ! A4    A(6,1,7)              103.7787         -DE/DX =    0.0                 !
 ! A5    A(6,1,8)              110.0901         -DE/DX =    0.0                 !
 ! A6    A(7,1,8)              110.1122         -DE/DX =    0.0                 !
 ! A7    A(1,2,3)              111.2932         -DE/DX =    0.0                 !
 ! A8    A(1,2,4)              109.4368         -DE/DX =    0.0                 !
 ! A9    A(1,2,5)              110.9126         -DE/DX =    0.0                 !
 ! A10   A(3,2,4)              108.3585         -DE/DX =    0.0                 !
 ! A11   A(3,2,5)              108.413          -DE/DX =    0.0                 !
 ! A12   A(4,2,5)              108.3422         -DE/DX =    0.0                 !
 ! A13   A(1,8,9)              106.3773         -DE/DX =    0.0                 !
 ! A14   A(1,8,10)             115.0172         -DE/DX =    0.0                 !
 ! A15   A(1,8,11)             108.771          -DE/DX =    0.0                 !
 ! A16   A(9,8,10)             109.4108         -DE/DX =    0.0                 !
 ! A17   A(9,8,11)             106.4793         -DE/DX =    0.0                 !
 ! A18   A(10,8,11)            110.3802         -DE/DX =    0.0                 !
 ! A19   A(8,10,12)            111.201          -DE/DX =    0.0                 !
 ! A20   A(8,10,13)            111.206          -DE/DX =    0.0                 !
 ! A21   A(8,10,14)            110.5711         -DE/DX =    0.0                 !
 ! A22   A(12,10,13)           107.9218         -DE/DX =    0.0                 !
 ! A23   A(12,10,14)           107.7287         -DE/DX =    0.0                 !
 ! A24   A(13,10,14)           108.0717         -DE/DX =    0.0                 !
 ! D1    D(6,1,2,3)             56.6465         -DE/DX =    0.0                 !
 ! D2    D(6,1,2,4)            -63.0893         -DE/DX =    0.0                 !
 ! D3    D(6,1,2,5)            177.4331         -DE/DX =    0.0                 !
 ! D4    D(7,1,2,3)            -56.5077         -DE/DX =    0.0                 !
 ! D5    D(7,1,2,4)           -176.2434         -DE/DX =    0.0                 !
 ! D6    D(7,1,2,5)             64.279          -DE/DX =    0.0                 !
 ! D7    D(8,1,2,3)           -179.2781         -DE/DX =    0.0                 !
 ! D8    D(8,1,2,4)             60.9862         -DE/DX =    0.0                 !
 ! D9    D(8,1,2,5)            -58.4914         -DE/DX =    0.0                 !
 ! D10   D(2,1,8,9)            -53.1229         -DE/DX =    0.0                 !
 ! D11   D(2,1,8,10)          -174.4152         -DE/DX =    0.0                 !
 ! D12   D(2,1,8,11)            61.2174         -DE/DX =    0.0                 !
 ! D13   D(6,1,8,9)             71.1111         -DE/DX =    0.0                 !
 ! D14   D(6,1,8,10)           -50.1813         -DE/DX =    0.0                 !
 ! D15   D(6,1,8,11)          -174.5486         -DE/DX =    0.0                 !
 ! D16   D(7,1,8,9)           -175.0601         -DE/DX =    0.0                 !
 ! D17   D(7,1,8,10)            63.6476         -DE/DX =    0.0                 !
 ! D18   D(7,1,8,11)           -60.7197         -DE/DX =    0.0                 !
 ! D19   D(1,8,10,12)           57.8399         -DE/DX =    0.0                 !
 ! D20   D(1,8,10,13)          -62.4604         -DE/DX =    0.0                 !
 ! D21   D(1,8,10,14)          177.4726         -DE/DX =    0.0                 !
 ! D22   D(9,8,10,12)          -61.7867         -DE/DX =    0.0                 !
 ! D23   D(9,8,10,13)          177.9131         -DE/DX =    0.0                 !
 ! D24   D(9,8,10,14)           57.846          -DE/DX =    0.0                 !
 ! D25   D(11,8,10,12)        -178.6431         -DE/DX =    0.0                 !
 ! D26   D(11,8,10,13)          61.0567         -DE/DX =    0.0                 !
 ! D27   D(11,8,10,14)         -59.0104         -DE/DX =    0.0                 !
 --------------------------------------------------------------------------------
 GradGradGradGradGradGradGradGradGradGradGradGradGradGradGradGradGradGrad

                          Input orientation:                          
 ---------------------------------------------------------------------
 Center     Atomic      Atomic             Coordinates (Angstroms)
 Number     Number       Type             X           Y           Z
 ---------------------------------------------------------------------
      1          6           0        0.510955   -0.171761    0.396190
      2          6           0        0.565727   -0.182113    1.918386
      3          1           0        1.083524    0.700751    2.303090
      4          1           0        1.105628   -1.074912    2.258285
      5          1           0       -0.442141   -0.205471    2.345576
      6          1           0        1.520021   -0.102513   -0.020944
      7         17           0       -0.299728    1.391475   -0.153068
      8          6           0       -0.219465   -1.378091   -0.193760
      9          1           0        0.254062   -2.270652    0.241341
     10          6           0       -0.180742   -1.474943   -1.720238
     11          1           0       -1.257401   -1.371369    0.162547
     12          1           0        0.851616   -1.506858   -2.089643
     13          1           0       -0.677838   -0.617774   -2.183875
     14          1           0       -0.685268   -2.385555   -2.061048
 ---------------------------------------------------------------------
                    Distance matrix (angstroms):
                    1          2          3          4          5
     1  C    0.000000
     2  C    1.523217   0.000000
     3  H    2.173794   1.093417   0.000000
     4  H    2.153303   1.097321   1.776366   0.000000
     5  H    2.170169   1.094912   1.775021   1.777395   0.000000
     6  H    1.094079   2.162872   2.497378   2.512402   3.075889
     7  Cl   1.844613   2.741553   2.902274   3.724609   2.968794
     8  C    1.528655   2.551088   3.500517   2.803624   2.805859
     9  H    2.120216   2.696592   3.710533   2.494598   3.029435
    10  C    2.579922   3.932965   4.745438   4.200407   4.267403
    11  H    2.149589   2.796622   3.788870   3.172366   2.605682
    12  H    2.842164   4.230955   4.921729   4.376708   4.799852
    13  H    2.875568   4.308689   4.997375   4.808587   4.554280
    14  H    3.517079   4.717630   5.630240   4.856102   4.922419
                    6          7          8          9         10
     6  H    0.000000
     7  Cl   2.358164   0.000000
     8  C    2.163972   2.771028   0.000000
     9  H    2.524336   3.724704   1.100093   0.000000
    10  C    2.768350   3.269027   1.530038   2.161018   0.000000
    11  H    3.059042   2.941098   1.097412   1.760522   2.171360
    12  H    2.588139   3.671001   2.181322   2.524666   1.096923
    13  H    3.126395   2.881705   2.179162   3.079305   1.093985
    14  H    3.773274   4.249115   2.172262   2.489284   1.095404
                   11         12         13         14
    11  H    0.000000
    12  H    3.088474   0.000000
    13  H    2.531698   1.771604   0.000000
    14  H    2.510037   1.770575   1.772058   0.000000
 Stoichiometry    C4H9Cl
 Framework group  C1[X(C4H9Cl)]
 Deg. of freedom    36
 Full point group                 C1      NOp   1
 Largest Abelian subgroup         C1      NOp   1
 Largest concise Abelian subgroup C1      NOp   1
                         Standard orientation:                         
 ---------------------------------------------------------------------
 Center     Atomic      Atomic             Coordinates (Angstroms)
 Number     Number       Type             X           Y           Z
 ---------------------------------------------------------------------
      1          6           0        0.259548    0.450553    0.358387
      2          6           0        1.317087    1.483377   -0.009138
      3          1           0        2.267637    1.272760    0.488512
      4          1           0        0.977820    2.479722    0.301196
      5          1           0        1.488832    1.499155   -1.090381
      6          1           0        0.127518    0.409985    1.443712
      7         17           0        0.900049   -1.225605   -0.069226
      8          6           0       -1.086473    0.689211   -0.325761
      9          1           0       -1.366509    1.729876   -0.104850
     10          6           0       -2.213027   -0.245829    0.118753
     11          1           0       -0.945926    0.628632   -1.412448
     12          1           0       -2.381179   -0.178056    1.200591
     13          1           0       -1.980522   -1.287547   -0.121183
     14          1           0       -3.151312    0.016885   -0.381758
 ---------------------------------------------------------------------
 Rotational constants (GHZ):      4.5247133      3.0621146      1.9747870

 **********************************************************************

            Population analysis using the SCF density.

 **********************************************************************

 Orbital symmetries:
       Occupied  (A) (A) (A) (A) (A) (A) (A) (A) (A) (A) (A) (A)
                 (A) (A) (A) (A) (A) (A) (A) (A) (A) (A) (A) (A)
                 (A)
       Virtual   (A) (A) (A) (A) (A) (A) (A) (A) (A) (A) (A) (A)
                 (A) (A) (A) (A) (A) (A) (A) (A) (A) (A) (A) (A)
                 (A) (A) (A) (A) (A) (A) (A) (A) (A) (A) (A) (A)
                 (A) (A) (A) (A) (A) (A) (A) (A) (A) (A) (A) (A)
                 (A) (A) (A) (A) (A) (A) (A) (A) (A) (A) (A) (A)
                 (A) (A) (A) (A) (A) (A) (A) (A) (A) (A) (A) (A)
 The electronic state is 1-A.
 Alpha  occ. eigenvalues -- -101.52189 -10.25111 -10.19655 -10.19035 -10.17865
 Alpha  occ. eigenvalues --   -9.43839  -7.20196  -7.19272  -7.19266  -0.85559
 Alpha  occ. eigenvalues --   -0.76850  -0.73187  -0.64141  -0.57971  -0.47840
 Alpha  occ. eigenvalues --   -0.44709  -0.43984  -0.42401  -0.38702  -0.36902
 Alpha  occ. eigenvalues --   -0.35601  -0.34906  -0.34267  -0.28812  -0.28737
 Alpha virt. eigenvalues --    0.02665   0.08658   0.11821   0.12312   0.15322
 Alpha virt. eigenvalues --    0.16010   0.16865   0.17544   0.17799   0.19235
 Alpha virt. eigenvalues --    0.22190   0.23365   0.24571   0.40211   0.44191
 Alpha virt. eigenvalues --    0.46250   0.48136   0.49089   0.50646   0.54734
 Alpha virt. eigenvalues --    0.56994   0.58848   0.61930   0.62763   0.64910
 Alpha virt. eigenvalues --    0.71907   0.73457   0.77770   0.82552   0.85193
 Alpha virt. eigenvalues --    0.88064   0.89122   0.89501   0.89741   0.90823
 Alpha virt. eigenvalues --    0.91982   0.92943   0.95810   0.96798   0.98002
 Alpha virt. eigenvalues --    0.99010   1.04418   1.09505   1.14461   1.37318
 Alpha virt. eigenvalues --    1.41932   1.44865   1.52064   1.61491   1.66606
 Alpha virt. eigenvalues --    1.82433   1.86563   1.89263   1.92501   1.96180
 Alpha virt. eigenvalues --    1.99930   2.05802   2.14020   2.20333   2.24886
 Alpha virt. eigenvalues --    2.28523   2.35701   2.37735   2.38627   2.53656
 Alpha virt. eigenvalues --    2.66538   2.72041   4.09333   4.22132   4.28286
 Alpha virt. eigenvalues --    4.36364   4.49589
          Condensed to atoms (all electrons):
              1          2          3          4          5          6
     1  C    5.077090   0.355888  -0.028803  -0.028029  -0.035598   0.371944
     2  C    0.355888   5.123406   0.374855   0.358244   0.377627  -0.043516
     3  H   -0.028803   0.374855   0.540734  -0.028046  -0.027992  -0.003366
     4  H   -0.028029   0.358244  -0.028046   0.570363  -0.028212  -0.001967
     5  H   -0.035598   0.377627  -0.027992  -0.028212   0.544343   0.005164
     6  H    0.371944  -0.043516  -0.003366  -0.001967   0.005164   0.584054
     7  Cl   0.240160  -0.064304  -0.000387   0.005320  -0.000413  -0.051681
     8  C    0.361270  -0.044563   0.004485  -0.003250  -0.005286  -0.046498
     9  H   -0.036561  -0.003641  -0.000023   0.003453  -0.000105  -0.002119
    10  C   -0.043186   0.004262  -0.000143  -0.000052   0.000020  -0.003861
    11  H   -0.040981  -0.003931  -0.000087  -0.000030   0.004675   0.005936
    12  H   -0.005028   0.000046   0.000000   0.000002   0.000007   0.005236
    13  H   -0.005989   0.000094   0.000003  -0.000006   0.000004  -0.000101
    14  H    0.004421  -0.000127   0.000002  -0.000006   0.000001  -0.000048
              7          8          9         10         11         12
     1  C    0.240160   0.361270  -0.036561  -0.043186  -0.040981  -0.005028
     2  C   -0.064304  -0.044563  -0.003641   0.004262  -0.003931   0.000046
     3  H   -0.000387   0.004485  -0.000023  -0.000143  -0.000087   0.000000
     4  H    0.005320  -0.003250   0.003453  -0.000052  -0.000030   0.000002
     5  H   -0.000413  -0.005286  -0.000105   0.000020   0.004675   0.000007
     6  H   -0.051681  -0.046498  -0.002119  -0.003861   0.005936   0.005236
     7  Cl  17.043398  -0.061062   0.005439  -0.007153  -0.001157  -0.000060
     8  C   -0.061062   5.019062   0.363997   0.375997   0.375509  -0.036236
     9  H    0.005439   0.363997   0.600546  -0.038082  -0.034188  -0.003712
    10  C   -0.007153   0.375997  -0.038082   5.065018  -0.035936   0.377353
    11  H   -0.001157   0.375509  -0.034188  -0.035936   0.576827   0.004912
    12  H   -0.000060  -0.036236  -0.003712   0.377353   0.004912   0.575188
    13  H    0.009228  -0.032367   0.004760   0.380686  -0.003789  -0.029782
    14  H    0.000010  -0.028169  -0.003134   0.372711  -0.002791  -0.030902
             13         14
     1  C   -0.005989   0.004421
     2  C    0.000094  -0.000127
     3  H    0.000003   0.000002
     4  H   -0.000006  -0.000006
     5  H    0.000004   0.000001
     6  H   -0.000101  -0.000048
     7  Cl   0.009228   0.000010
     8  C   -0.032367  -0.028169
     9  H    0.004760  -0.003134
    10  C    0.380686   0.372711
    11  H   -0.003789  -0.002791
    12  H   -0.029782  -0.030902
    13  H    0.533012  -0.028440
    14  H   -0.028440   0.569310
 Mulliken atomic charges:
              1
     1  C   -0.186597
     2  C   -0.434340
     3  H    0.168769
     4  H    0.152216
     5  H    0.165765
     6  H    0.180822
     7  Cl  -0.117337
     8  C   -0.242889
     9  H    0.143371
    10  C   -0.447635
    11  H    0.155032
    12  H    0.142976
    13  H    0.172687
    14  H    0.147159
 Sum of Mulliken atomic charges =   0.00000
 Mulliken charges with hydrogens summed into heavy atoms:
              1
     1  C   -0.005774
     2  C    0.052409
     7  Cl  -0.117337
     8  C    0.055514
    10  C    0.015188
 Sum of Mulliken charges with hydrogens summed into heavy atoms =   0.00000
 Electronic spatial extent (au):  <R**2>=            655.6891
 Charge=              0.0000 electrons
 Dipole moment (field-independent basis, Debye):
    X=             -0.8875    Y=              2.1179    Z=              0.3750  Tot=              2.3268
 Quadrupole moment (field-independent basis, Debye-Ang):
   XX=            -39.6683   YY=            -40.1437   ZZ=            -38.9637
   XY=              1.3946   XZ=              0.3157   YZ=              0.3260
 Traceless Quadrupole moment (field-independent basis, Debye-Ang):
   XX=             -0.0764   YY=             -0.5518   ZZ=              0.6282
   XY=              1.3946   XZ=              0.3157   YZ=              0.3260
 Octapole moment (field-independent basis, Debye-Ang**2):
  XXX=              2.5043  YYY=             -2.9210  ZZZ=              0.4943  XYY=              0.8962
  XXY=              0.6174  XXZ=             -0.3735  XZZ=              0.8703  YZZ=             -0.2782
  YYZ=             -0.4211  XYZ=              0.2162
 Hexadecapole moment (field-independent basis, Debye-Ang**3):
 XXXX=           -480.8370 YYYY=           -305.5457 ZZZZ=            -77.5620 XXXY=             -3.4629
 XXXZ=              4.8090 YYYX=             -7.0906 YYYZ=              4.6303 ZZZX=             -1.3454
 ZZZY=             -0.5409 XXYY=           -133.4687 XXZZ=            -93.4459 YYZZ=            -67.5029
 XXYZ=              0.8376 YYXZ=             -0.9408 ZZXY=             -0.4384
 N-N= 2.321371259684D+02 E-N=-1.922438039543D+03  KE= 6.150162746254D+02

 Test job not archived.
 1\1\GINC-TERMINUS\FOpt\RB3LYP\6-31G(d)\C4H9Cl1\FRODOX\04-Jan-2018\0\\#
 B3LYP/6-31G* fopt test\\AsymmetricEnantiomers/s-2-chlorobutane_rotated
 .xyz\\0,1\C,0.5109554294,-0.1717609452,0.3961895006\C,0.5657266781,-0.
 1821130927,1.9183859696\H,1.0835243555,0.7007511262,2.3030896052\H,1.1
 056276554,-1.0749117744,2.2582845905\H,-0.4421407394,-0.2054713666,2.3
 455755389\H,1.5200205482,-0.1025125149,-0.0209443045\Cl,-0.2997277995,
 1.3914750999,-0.1530678203\C,-0.2194645143,-1.3780912679,-0.1937595896
 \H,0.2540619877,-2.2706522294,0.2413408514\C,-0.1807422038,-1.47494348
 49,-1.7202381794\H,-1.2574011527,-1.3713691573,0.1625473132\H,0.851615
 6075,-1.5068581529,-2.0896428912\H,-0.6778383336,-0.6177736705,-2.1838
 747361\H,-0.6852675186,-2.3855545693,-2.0610480383\\Version=EM64L-G09R
 evB.01\State=1-A\HF=-618.0570819\RMSD=2.470e-09\RMSF=2.893e-05\Dipole=
 0.3376698,-0.8070587,0.2695212\Quadrupole=0.6329594,-1.2392673,0.60630
 8,0.2713286,0.3574255,0.1741034\PG=C01 [X(C4H9Cl1)]\\@


 WHEN YOU REACH FOR THE STARS, YOU MAY NOT QUITE GET ONE,
 BUT YOU WON'T COME UP WITH A HANDFUL OF MUD, EITHER.

                                         -- LEO BURNETT (AD AGENCY HEAD)
 Job cpu time:  0 days  0 hours  1 minutes 28.7 seconds.
 File lengths (MBytes):  RWF=      9 Int=      0 D2E=      0 Chk=      2 Scr=      1
 Normal termination of Gaussian 09 at Thu Jan  4 15:09:29 2018.
