 Entering Gaussian System, Link 0=g09
 Input=Tetrabenzoporphyrin_rotated02.inp
 Output=Tetrabenzoporphyrin_rotated02.log
 Initial command:
 /usr/local/g09/l1.exe /home/g09scr/Gau-31290.inp -scrdir=/home/g09scr/
 Entering Link 1 = /usr/local/g09/l1.exe PID=     31292.
  
 Copyright (c) 1988,1990,1992,1993,1995,1998,2003,2009,2010,
            Gaussian, Inc.  All Rights Reserved.
  
 This is part of the Gaussian(R) 09 program.  It is based on
 the Gaussian(R) 03 system (copyright 2003, Gaussian, Inc.),
 the Gaussian(R) 98 system (copyright 1998, Gaussian, Inc.),
 the Gaussian(R) 94 system (copyright 1995, Gaussian, Inc.),
 the Gaussian 92(TM) system (copyright 1992, Gaussian, Inc.),
 the Gaussian 90(TM) system (copyright 1990, Gaussian, Inc.),
 the Gaussian 88(TM) system (copyright 1988, Gaussian, Inc.),
 the Gaussian 86(TM) system (copyright 1986, Carnegie Mellon
 University), and the Gaussian 82(TM) system (copyright 1983,
 Carnegie Mellon University). Gaussian is a federally registered
 trademark of Gaussian, Inc.
  
 This software contains proprietary and confidential information,
 including trade secrets, belonging to Gaussian, Inc.
  
 This software is provided under written license and may be
 used, copied, transmitted, or stored only in accord with that
 written license.
  
 The following legend is applicable only to US Government
 contracts under FAR:
  
                    RESTRICTED RIGHTS LEGEND
  
 Use, reproduction and disclosure by the US Government is
 subject to restrictions as set forth in subparagraphs (a)
 and (c) of the Commercial Computer Software - Restricted
 Rights clause in FAR 52.227-19.
  
 Gaussian, Inc.
 340 Quinnipiac St., Bldg. 40, Wallingford CT 06492
  
  
 ---------------------------------------------------------------
 Warning -- This program may not be used in any manner that
 competes with the business of Gaussian, Inc. or will provide
 assistance to any competitor of Gaussian, Inc.  The licensee
 of this program is prohibited from giving any competitor of
 Gaussian, Inc. access to this program.  By using this program,
 the user acknowledges that Gaussian, Inc. is engaged in the
 business of creating and licensing software in the field of
 computational chemistry and represents and warrants to the
 licensee that it is not a competitor of Gaussian, Inc. and that
 it will not use this program in any manner prohibited above.
 ---------------------------------------------------------------
  

 Cite this work as:
 Gaussian 09, Revision B.01,
 M. J. Frisch, G. W. Trucks, H. B. Schlegel, G. E. Scuseria, 
 M. A. Robb, J. R. Cheeseman, G. Scalmani, V. Barone, B. Mennucci, 
 G. A. Petersson, H. Nakatsuji, M. Caricato, X. Li, H. P. Hratchian, 
 A. F. Izmaylov, J. Bloino, G. Zheng, J. L. Sonnenberg, M. Hada, 
 M. Ehara, K. Toyota, R. Fukuda, J. Hasegawa, M. Ishida, T. Nakajima, 
 Y. Honda, O. Kitao, H. Nakai, T. Vreven, J. A. Montgomery, Jr., 
 J. E. Peralta, F. Ogliaro, M. Bearpark, J. J. Heyd, E. Brothers, 
 K. N. Kudin, V. N. Staroverov, T. Keith, R. Kobayashi, J. Normand, 
 K. Raghavachari, A. Rendell, J. C. Burant, S. S. Iyengar, J. Tomasi, 
 M. Cossi, N. Rega, J. M. Millam, M. Klene, J. E. Knox, J. B. Cross, 
 V. Bakken, C. Adamo, J. Jaramillo, R. Gomperts, R. E. Stratmann, 
 O. Yazyev, A. J. Austin, R. Cammi, C. Pomelli, J. W. Ochterski, 
 R. L. Martin, K. Morokuma, V. G. Zakrzewski, G. A. Voth, 
 P. Salvador, J. J. Dannenberg, S. Dapprich, A. D. Daniels, 
 O. Farkas, J. B. Foresman, J. V. Ortiz, J. Cioslowski, 
 and D. J. Fox, Gaussian, Inc., Wallingford CT, 2010.
 
 ******************************************
 Gaussian 09:  EM64L-G09RevB.01 12-Aug-2010
                 4-Jan-2018 
 ******************************************
 %nproc=4
 Will use up to    4 processors via shared memory.
 %mem=60gb
 -----------------------
 #B3LYP/6-31G* fopt test
 -----------------------
 1/14=-1,18=20,19=15,26=3,38=1/1,3;
 2/9=110,12=2,14=103,17=6,18=5,40=1/2;
 3/5=1,6=6,7=1,11=2,16=1,25=1,30=1,71=1,74=-5/1,2,3;
 4//1;
 5/5=2,38=5/2;
 6/7=2,8=2,9=2,10=2,28=1/1;
 7//1,2,3,16;
 1/14=-1,18=20,19=15/3(2);
 2/9=110/2;
 99//99;
 2/9=110/2;
 3/5=1,6=6,7=1,11=2,16=1,25=1,30=1,71=1,74=-5/1,2,3;
 4/5=5,16=3/1;
 5/5=2,38=5/2;
 7//1,2,3,16;
 1/14=-1,18=20,19=15/3(-5);
 2/9=110/2;
 6/7=2,8=2,9=2,10=2,19=2,28=1/1;
 99/9=1/99;
 ------------------------------------------------------
 RotationSameMolecule/Tetrabenzoporphyrin_rotated02.xyz
 ------------------------------------------------------
 Symbolic Z-matrix:
 Charge =  0 Multiplicity = 1
 C                    -1.72252   2.20555   3.33926 
 C                    -0.65221   1.64098   3.98297 
 C                     0.06147   0.8416    2.98546 
 C                    -1.66182   1.75061   1.94904 
 N                    -0.58277   0.94396   1.79691 
 C                    -2.59156   2.10576   0.93356 
 C                    -2.55661   1.67882  -0.42351 
 N                    -1.62994   0.85977  -0.98027 
 C                    -1.95192   0.69937  -2.288 
 C                    -3.47831   2.04177  -1.39355 
 C                    -3.09926   1.4278   -2.56232 
 C                    -1.23889  -0.08526  -3.23725 
 C                    -0.06147  -0.8416   -2.98546 
 N                     0.58277  -0.94396  -1.79691 
 C                     1.72252  -2.20555  -3.33926 
 C                     0.65221  -1.64098  -3.98297 
 C                     2.55661  -1.67882   0.42351 
 N                     1.62994  -0.85977   0.98027 
 C                     1.95192  -0.69937   2.288 
 C                     3.09926  -1.4278    2.56232 
 C                     3.47831  -2.04177   1.39355 
 C                     1.23889   0.08526   3.23725 
 C                     2.59156  -2.10576  -0.93356 
 C                     1.66182  -1.75061  -1.94904 
 C                    -2.62046   3.03763   4.00837 
 C                    -0.41055   1.87193   5.33745 
 H                    -3.40077   2.76384   1.22694 
 H                    -0.82747   0.43648  -0.49766 
 C                    -4.61099   2.85911  -1.33303 
 C                    -3.82935   1.59304  -3.74313 
 H                    -1.62471  -0.11298  -4.24935 
 C                     2.62046  -3.03763  -4.00837 
 C                     0.41055  -1.87193  -5.33745 
 H                     0.82747  -0.43648   0.49766 
 C                     3.82935  -1.59304   3.74313 
 C                     4.61099  -2.85911   1.33303 
 H                     1.62471   0.11298   4.24935 
 H                     3.40077  -2.76384  -1.22694 
 C                    -5.36246   3.04137  -2.50737 
 C                    -4.97291   2.41038  -3.7085 
 C                     2.4018   -3.28827  -5.37451 
 C                     1.29934  -2.70674  -6.03755 
 C                     4.97291  -2.41038   3.7085 
 C                     5.36246  -3.04137   2.50737 
 C                    -2.4018    3.28827   5.37451 
 C                    -1.29934   2.70674   6.03755 
 H                    -3.46338   3.48078   3.49644 
 H                     0.43507   1.4244    5.84103 
 H                    -4.91108   3.34335  -0.41396 
 H                    -3.53264   1.11058  -4.66424 
 H                     3.46338  -3.48078  -3.49644 
 H                    -0.43507  -1.4244   -5.84103 
 H                     3.53264  -1.11058   4.66424 
 H                     4.91108  -3.34335   0.41396 
 H                    -6.24414   3.66871  -2.49021 
 H                    -5.55747   2.55646  -4.60748 
 H                     3.08142  -3.9296   -5.91995 
 H                     1.13761  -2.90428  -7.08899 
 H                     5.55747  -2.55646   4.60748 
 H                     6.24414  -3.66871   2.49021 
 H                    -3.08142   3.9296    5.91995 
 H                    -1.13761   2.90428   7.08899 
 

 GradGradGradGradGradGradGradGradGradGradGradGradGradGradGradGradGradGrad
 Berny optimization.
 Initialization pass.
                           ----------------------------
                           !    Initial Parameters    !
                           ! (Angstroms and Degrees)  !
 --------------------------                            --------------------------
 ! Name  Definition              Value          Derivative Info.                !
 --------------------------------------------------------------------------------
 ! R1    R(1,2)                  1.3706         estimate D2E/DX2                !
 ! R2    R(1,4)                  1.464          estimate D2E/DX2                !
 ! R3    R(1,25)                 1.3951         estimate D2E/DX2                !
 ! R4    R(2,3)                  1.464          estimate D2E/DX2                !
 ! R5    R(2,26)                 1.3951         estimate D2E/DX2                !
 ! R6    R(3,5)                  1.3558         estimate D2E/DX2                !
 ! R7    R(3,22)                 1.4219         estimate D2E/DX2                !
 ! R8    R(4,5)                  1.3558         estimate D2E/DX2                !
 ! R9    R(4,6)                  1.4219         estimate D2E/DX2                !
 ! R10   R(6,7)                  1.4231         estimate D2E/DX2                !
 ! R11   R(6,27)                 1.0835         estimate D2E/DX2                !
 ! R12   R(7,8)                  1.3563         estimate D2E/DX2                !
 ! R13   R(7,10)                 1.3864         estimate D2E/DX2                !
 ! R14   R(8,9)                  1.3563         estimate D2E/DX2                !
 ! R15   R(8,28)                 1.0276         estimate D2E/DX2                !
 ! R16   R(9,11)                 1.3865         estimate D2E/DX2                !
 ! R17   R(9,12)                 1.4231         estimate D2E/DX2                !
 ! R18   R(10,11)                1.3736         estimate D2E/DX2                !
 ! R19   R(10,29)                1.3981         estimate D2E/DX2                !
 ! R20   R(11,30)                1.3981         estimate D2E/DX2                !
 ! R21   R(12,13)                1.4219         estimate D2E/DX2                !
 ! R22   R(12,31)                1.0835         estimate D2E/DX2                !
 ! R23   R(13,14)                1.3558         estimate D2E/DX2                !
 ! R24   R(13,16)                1.464          estimate D2E/DX2                !
 ! R25   R(14,24)                1.3558         estimate D2E/DX2                !
 ! R26   R(15,16)                1.3706         estimate D2E/DX2                !
 ! R27   R(15,24)                1.464          estimate D2E/DX2                !
 ! R28   R(15,32)                1.3951         estimate D2E/DX2                !
 ! R29   R(16,33)                1.3951         estimate D2E/DX2                !
 ! R30   R(17,18)                1.3563         estimate D2E/DX2                !
 ! R31   R(17,21)                1.3864         estimate D2E/DX2                !
 ! R32   R(17,23)                1.4231         estimate D2E/DX2                !
 ! R33   R(18,19)                1.3563         estimate D2E/DX2                !
 ! R34   R(18,34)                1.0276         estimate D2E/DX2                !
 ! R35   R(19,20)                1.3865         estimate D2E/DX2                !
 ! R36   R(19,22)                1.4231         estimate D2E/DX2                !
 ! R37   R(20,21)                1.3736         estimate D2E/DX2                !
 ! R38   R(20,35)                1.3981         estimate D2E/DX2                !
 ! R39   R(21,36)                1.3981         estimate D2E/DX2                !
 ! R40   R(22,37)                1.0835         estimate D2E/DX2                !
 ! R41   R(23,24)                1.4219         estimate D2E/DX2                !
 ! R42   R(23,38)                1.0835         estimate D2E/DX2                !
 ! R43   R(25,45)                1.406          estimate D2E/DX2                !
 ! R44   R(25,47)                1.0812         estimate D2E/DX2                !
 ! R45   R(26,46)                1.4061         estimate D2E/DX2                !
 ! R46   R(26,48)                1.0812         estimate D2E/DX2                !
 ! R47   R(29,39)                1.4061         estimate D2E/DX2                !
 ! R48   R(29,49)                1.0813         estimate D2E/DX2                !
 ! R49   R(30,40)                1.406          estimate D2E/DX2                !
 ! R50   R(30,50)                1.0813         estimate D2E/DX2                !
 ! R51   R(32,41)                1.406          estimate D2E/DX2                !
 ! R52   R(32,51)                1.0812         estimate D2E/DX2                !
 ! R53   R(33,42)                1.4061         estimate D2E/DX2                !
 ! R54   R(33,52)                1.0812         estimate D2E/DX2                !
 ! R55   R(35,43)                1.406          estimate D2E/DX2                !
 ! R56   R(35,53)                1.0813         estimate D2E/DX2                !
 ! R57   R(36,44)                1.4061         estimate D2E/DX2                !
 ! R58   R(36,54)                1.0813         estimate D2E/DX2                !
 ! R59   R(39,40)                1.4116         estimate D2E/DX2                !
 ! R60   R(39,55)                1.0822         estimate D2E/DX2                !
 ! R61   R(40,56)                1.0822         estimate D2E/DX2                !
 ! R62   R(41,42)                1.4118         estimate D2E/DX2                !
 ! R63   R(41,57)                1.082          estimate D2E/DX2                !
 ! R64   R(42,58)                1.082          estimate D2E/DX2                !
 ! R65   R(43,44)                1.4116         estimate D2E/DX2                !
 ! R66   R(43,59)                1.0822         estimate D2E/DX2                !
 ! R67   R(44,60)                1.0822         estimate D2E/DX2                !
 ! R68   R(45,46)                1.4118         estimate D2E/DX2                !
 ! R69   R(45,61)                1.082          estimate D2E/DX2                !
 ! R70   R(46,62)                1.082          estimate D2E/DX2                !
 ! A1    A(2,1,4)              106.5942         estimate D2E/DX2                !
 ! A2    A(2,1,25)             121.5351         estimate D2E/DX2                !
 ! A3    A(4,1,25)             131.8706         estimate D2E/DX2                !
 ! A4    A(1,2,3)              106.5936         estimate D2E/DX2                !
 ! A5    A(1,2,26)             121.5361         estimate D2E/DX2                !
 ! A6    A(3,2,26)             131.8703         estimate D2E/DX2                !
 ! A7    A(2,3,5)              108.9312         estimate D2E/DX2                !
 ! A8    A(2,3,22)             124.9913         estimate D2E/DX2                !
 ! A9    A(5,3,22)             126.0774         estimate D2E/DX2                !
 ! A10   A(1,4,5)              108.9312         estimate D2E/DX2                !
 ! A11   A(1,4,6)              124.9913         estimate D2E/DX2                !
 ! A12   A(5,4,6)              126.0775         estimate D2E/DX2                !
 ! A13   A(3,5,4)              108.9498         estimate D2E/DX2                !
 ! A14   A(4,6,7)              126.1615         estimate D2E/DX2                !
 ! A15   A(4,6,27)             116.5303         estimate D2E/DX2                !
 ! A16   A(7,6,27)             117.3082         estimate D2E/DX2                !
 ! A17   A(6,7,8)              126.1153         estimate D2E/DX2                !
 ! A18   A(6,7,10)             124.9136         estimate D2E/DX2                !
 ! A19   A(8,7,10)             108.9711         estimate D2E/DX2                !
 ! A20   A(7,8,9)              107.7592         estimate D2E/DX2                !
 ! A21   A(7,8,28)             126.1206         estimate D2E/DX2                !
 ! A22   A(9,8,28)             126.1202         estimate D2E/DX2                !
 ! A23   A(8,9,11)             108.971          estimate D2E/DX2                !
 ! A24   A(8,9,12)             126.1155         estimate D2E/DX2                !
 ! A25   A(11,9,12)            124.9135         estimate D2E/DX2                !
 ! A26   A(7,10,11)            107.1497         estimate D2E/DX2                !
 ! A27   A(7,10,29)            131.4024         estimate D2E/DX2                !
 ! A28   A(11,10,29)           121.4479         estimate D2E/DX2                !
 ! A29   A(9,11,10)            107.149          estimate D2E/DX2                !
 ! A30   A(9,11,30)            131.4028         estimate D2E/DX2                !
 ! A31   A(10,11,30)           121.4482         estimate D2E/DX2                !
 ! A32   A(9,12,13)            126.1617         estimate D2E/DX2                !
 ! A33   A(9,12,31)            117.3082         estimate D2E/DX2                !
 ! A34   A(13,12,31)           116.5301         estimate D2E/DX2                !
 ! A35   A(12,13,14)           126.0774         estimate D2E/DX2                !
 ! A36   A(12,13,16)           124.9913         estimate D2E/DX2                !
 ! A37   A(14,13,16)           108.9312         estimate D2E/DX2                !
 ! A38   A(13,14,24)           108.9498         estimate D2E/DX2                !
 ! A39   A(16,15,24)           106.5942         estimate D2E/DX2                !
 ! A40   A(16,15,32)           121.5351         estimate D2E/DX2                !
 ! A41   A(24,15,32)           131.8706         estimate D2E/DX2                !
 ! A42   A(13,16,15)           106.5936         estimate D2E/DX2                !
 ! A43   A(13,16,33)           131.8703         estimate D2E/DX2                !
 ! A44   A(15,16,33)           121.5361         estimate D2E/DX2                !
 ! A45   A(18,17,21)           108.9711         estimate D2E/DX2                !
 ! A46   A(18,17,23)           126.1153         estimate D2E/DX2                !
 ! A47   A(21,17,23)           124.9136         estimate D2E/DX2                !
 ! A48   A(17,18,19)           107.7592         estimate D2E/DX2                !
 ! A49   A(17,18,34)           126.1206         estimate D2E/DX2                !
 ! A50   A(19,18,34)           126.1202         estimate D2E/DX2                !
 ! A51   A(18,19,20)           108.971          estimate D2E/DX2                !
 ! A52   A(18,19,22)           126.1155         estimate D2E/DX2                !
 ! A53   A(20,19,22)           124.9135         estimate D2E/DX2                !
 ! A54   A(19,20,21)           107.149          estimate D2E/DX2                !
 ! A55   A(19,20,35)           131.4028         estimate D2E/DX2                !
 ! A56   A(21,20,35)           121.4482         estimate D2E/DX2                !
 ! A57   A(17,21,20)           107.1497         estimate D2E/DX2                !
 ! A58   A(17,21,36)           131.4024         estimate D2E/DX2                !
 ! A59   A(20,21,36)           121.4479         estimate D2E/DX2                !
 ! A60   A(3,22,19)            126.1617         estimate D2E/DX2                !
 ! A61   A(3,22,37)            116.5301         estimate D2E/DX2                !
 ! A62   A(19,22,37)           117.3082         estimate D2E/DX2                !
 ! A63   A(17,23,24)           126.1615         estimate D2E/DX2                !
 ! A64   A(17,23,38)           117.3082         estimate D2E/DX2                !
 ! A65   A(24,23,38)           116.5303         estimate D2E/DX2                !
 ! A66   A(14,24,15)           108.9312         estimate D2E/DX2                !
 ! A67   A(14,24,23)           126.0775         estimate D2E/DX2                !
 ! A68   A(15,24,23)           124.9913         estimate D2E/DX2                !
 ! A69   A(1,25,45)            118.1784         estimate D2E/DX2                !
 ! A70   A(1,25,47)            121.2757         estimate D2E/DX2                !
 ! A71   A(45,25,47)           120.5459         estimate D2E/DX2                !
 ! A72   A(2,26,46)            118.1776         estimate D2E/DX2                !
 ! A73   A(2,26,48)            121.2758         estimate D2E/DX2                !
 ! A74   A(46,26,48)           120.5466         estimate D2E/DX2                !
 ! A75   A(10,29,39)           118.2043         estimate D2E/DX2                !
 ! A76   A(10,29,49)           121.5629         estimate D2E/DX2                !
 ! A77   A(39,29,49)           120.2328         estimate D2E/DX2                !
 ! A78   A(11,30,40)           118.2045         estimate D2E/DX2                !
 ! A79   A(11,30,50)           121.5626         estimate D2E/DX2                !
 ! A80   A(40,30,50)           120.2329         estimate D2E/DX2                !
 ! A81   A(15,32,41)           118.1784         estimate D2E/DX2                !
 ! A82   A(15,32,51)           121.2757         estimate D2E/DX2                !
 ! A83   A(41,32,51)           120.5459         estimate D2E/DX2                !
 ! A84   A(16,33,42)           118.1776         estimate D2E/DX2                !
 ! A85   A(16,33,52)           121.2758         estimate D2E/DX2                !
 ! A86   A(42,33,52)           120.5466         estimate D2E/DX2                !
 ! A87   A(20,35,43)           118.2045         estimate D2E/DX2                !
 ! A88   A(20,35,53)           121.5626         estimate D2E/DX2                !
 ! A89   A(43,35,53)           120.2329         estimate D2E/DX2                !
 ! A90   A(21,36,44)           118.2043         estimate D2E/DX2                !
 ! A91   A(21,36,54)           121.5629         estimate D2E/DX2                !
 ! A92   A(44,36,54)           120.2328         estimate D2E/DX2                !
 ! A93   A(29,39,40)           120.3473         estimate D2E/DX2                !
 ! A94   A(29,39,55)           119.8222         estimate D2E/DX2                !
 ! A95   A(40,39,55)           119.8305         estimate D2E/DX2                !
 ! A96   A(30,40,39)           120.3477         estimate D2E/DX2                !
 ! A97   A(30,40,56)           119.8225         estimate D2E/DX2                !
 ! A98   A(39,40,56)           119.8298         estimate D2E/DX2                !
 ! A99   A(32,41,42)           120.2862         estimate D2E/DX2                !
 ! A100  A(32,41,57)           119.8532         estimate D2E/DX2                !
 ! A101  A(42,41,57)           119.8605         estimate D2E/DX2                !
 ! A102  A(33,42,41)           120.2865         estimate D2E/DX2                !
 ! A103  A(33,42,58)           119.8526         estimate D2E/DX2                !
 ! A104  A(41,42,58)           119.861          estimate D2E/DX2                !
 ! A105  A(35,43,44)           120.3477         estimate D2E/DX2                !
 ! A106  A(35,43,59)           119.8225         estimate D2E/DX2                !
 ! A107  A(44,43,59)           119.8298         estimate D2E/DX2                !
 ! A108  A(36,44,43)           120.3473         estimate D2E/DX2                !
 ! A109  A(36,44,60)           119.8222         estimate D2E/DX2                !
 ! A110  A(43,44,60)           119.8305         estimate D2E/DX2                !
 ! A111  A(25,45,46)           120.2862         estimate D2E/DX2                !
 ! A112  A(25,45,61)           119.8532         estimate D2E/DX2                !
 ! A113  A(46,45,61)           119.8605         estimate D2E/DX2                !
 ! A114  A(26,46,45)           120.2865         estimate D2E/DX2                !
 ! A115  A(26,46,62)           119.8526         estimate D2E/DX2                !
 ! A116  A(45,46,62)           119.861          estimate D2E/DX2                !
 ! D1    D(4,1,2,3)             -0.0001         estimate D2E/DX2                !
 ! D2    D(4,1,2,26)          -179.9999         estimate D2E/DX2                !
 ! D3    D(25,1,2,3)          -179.9999         estimate D2E/DX2                !
 ! D4    D(25,1,2,26)            0.0003         estimate D2E/DX2                !
 ! D5    D(2,1,4,5)              0.0002         estimate D2E/DX2                !
 ! D6    D(2,1,4,6)            179.9997         estimate D2E/DX2                !
 ! D7    D(25,1,4,5)           179.9999         estimate D2E/DX2                !
 ! D8    D(25,1,4,6)            -0.0005         estimate D2E/DX2                !
 ! D9    D(2,1,25,45)           -0.0002         estimate D2E/DX2                !
 ! D10   D(2,1,25,47)         -180.0            estimate D2E/DX2                !
 ! D11   D(4,1,25,45)         -180.0            estimate D2E/DX2                !
 ! D12   D(4,1,25,47)            0.0003         estimate D2E/DX2                !
 ! D13   D(1,2,3,5)              0.0            estimate D2E/DX2                !
 ! D14   D(1,2,3,22)          -180.0            estimate D2E/DX2                !
 ! D15   D(26,2,3,5)           179.9998         estimate D2E/DX2                !
 ! D16   D(26,2,3,22)           -0.0002         estimate D2E/DX2                !
 ! D17   D(1,2,26,46)           -0.0004         estimate D2E/DX2                !
 ! D18   D(1,2,26,48)         -180.0            estimate D2E/DX2                !
 ! D19   D(3,2,26,46)          179.9999         estimate D2E/DX2                !
 ! D20   D(3,2,26,48)            0.0002         estimate D2E/DX2                !
 ! D21   D(2,3,5,4)              0.0001         estimate D2E/DX2                !
 ! D22   D(22,3,5,4)          -179.9999         estimate D2E/DX2                !
 ! D23   D(2,3,22,19)          179.9998         estimate D2E/DX2                !
 ! D24   D(2,3,22,37)           -0.0001         estimate D2E/DX2                !
 ! D25   D(5,3,22,19)           -0.0001         estimate D2E/DX2                !
 ! D26   D(5,3,22,37)          180.0            estimate D2E/DX2                !
 ! D27   D(1,4,5,3)             -0.0002         estimate D2E/DX2                !
 ! D28   D(6,4,5,3)           -179.9998         estimate D2E/DX2                !
 ! D29   D(1,4,6,7)           -180.0            estimate D2E/DX2                !
 ! D30   D(1,4,6,27)             0.0004         estimate D2E/DX2                !
 ! D31   D(5,4,6,7)             -0.0005         estimate D2E/DX2                !
 ! D32   D(5,4,6,27)           179.9999         estimate D2E/DX2                !
 ! D33   D(4,6,7,8)              0.0006         estimate D2E/DX2                !
 ! D34   D(4,6,7,10)          -179.9999         estimate D2E/DX2                !
 ! D35   D(27,6,7,8)          -179.9998         estimate D2E/DX2                !
 ! D36   D(27,6,7,10)           -0.0003         estimate D2E/DX2                !
 ! D37   D(6,7,8,9)           -179.9999         estimate D2E/DX2                !
 ! D38   D(6,7,8,28)            -0.0006         estimate D2E/DX2                !
 ! D39   D(10,7,8,9)             0.0005         estimate D2E/DX2                !
 ! D40   D(10,7,8,28)          179.9999         estimate D2E/DX2                !
 ! D41   D(6,7,10,11)          179.9999         estimate D2E/DX2                !
 ! D42   D(6,7,10,29)            0.0001         estimate D2E/DX2                !
 ! D43   D(8,7,10,11)           -0.0005         estimate D2E/DX2                !
 ! D44   D(8,7,10,29)          179.9997         estimate D2E/DX2                !
 ! D45   D(7,8,9,11)            -0.0003         estimate D2E/DX2                !
 ! D46   D(7,8,9,12)          -179.9999         estimate D2E/DX2                !
 ! D47   D(28,8,9,11)         -179.9996         estimate D2E/DX2                !
 ! D48   D(28,8,9,12)            0.0008         estimate D2E/DX2                !
 ! D49   D(8,9,11,10)            0.0            estimate D2E/DX2                !
 ! D50   D(8,9,11,30)         -179.9996         estimate D2E/DX2                !
 ! D51   D(12,9,11,10)         179.9995         estimate D2E/DX2                !
 ! D52   D(12,9,11,30)           0.0            estimate D2E/DX2                !
 ! D53   D(8,9,12,13)           -0.0005         estimate D2E/DX2                !
 ! D54   D(8,9,12,31)          179.9996         estimate D2E/DX2                !
 ! D55   D(11,9,12,13)         180.0            estimate D2E/DX2                !
 ! D56   D(11,9,12,31)           0.0001         estimate D2E/DX2                !
 ! D57   D(7,10,11,9)            0.0004         estimate D2E/DX2                !
 ! D58   D(7,10,11,30)         179.9999         estimate D2E/DX2                !
 ! D59   D(29,10,11,9)        -179.9999         estimate D2E/DX2                !
 ! D60   D(29,10,11,30)         -0.0003         estimate D2E/DX2                !
 ! D61   D(7,10,29,39)         179.9995         estimate D2E/DX2                !
 ! D62   D(7,10,29,49)           0.0003         estimate D2E/DX2                !
 ! D63   D(11,10,29,39)         -0.0002         estimate D2E/DX2                !
 ! D64   D(11,10,29,49)       -179.9994         estimate D2E/DX2                !
 ! D65   D(9,11,30,40)         179.9996         estimate D2E/DX2                !
 ! D66   D(9,11,30,50)           0.0002         estimate D2E/DX2                !
 ! D67   D(10,11,30,40)          0.0001         estimate D2E/DX2                !
 ! D68   D(10,11,30,50)       -179.9993         estimate D2E/DX2                !
 ! D69   D(9,12,13,14)           0.0001         estimate D2E/DX2                !
 ! D70   D(9,12,13,16)        -179.9998         estimate D2E/DX2                !
 ! D71   D(31,12,13,14)       -180.0            estimate D2E/DX2                !
 ! D72   D(31,12,13,16)          0.0001         estimate D2E/DX2                !
 ! D73   D(12,13,14,24)        179.9999         estimate D2E/DX2                !
 ! D74   D(16,13,14,24)         -0.0001         estimate D2E/DX2                !
 ! D75   D(12,13,16,15)        180.0            estimate D2E/DX2                !
 ! D76   D(12,13,16,33)          0.0002         estimate D2E/DX2                !
 ! D77   D(14,13,16,15)          0.0            estimate D2E/DX2                !
 ! D78   D(14,13,16,33)       -179.9998         estimate D2E/DX2                !
 ! D79   D(13,14,24,15)          0.0002         estimate D2E/DX2                !
 ! D80   D(13,14,24,23)        179.9998         estimate D2E/DX2                !
 ! D81   D(24,15,16,13)          0.0001         estimate D2E/DX2                !
 ! D82   D(24,15,16,33)        179.9999         estimate D2E/DX2                !
 ! D83   D(32,15,16,13)        179.9999         estimate D2E/DX2                !
 ! D84   D(32,15,16,33)         -0.0003         estimate D2E/DX2                !
 ! D85   D(16,15,24,14)         -0.0002         estimate D2E/DX2                !
 ! D86   D(16,15,24,23)       -179.9997         estimate D2E/DX2                !
 ! D87   D(32,15,24,14)       -179.9999         estimate D2E/DX2                !
 ! D88   D(32,15,24,23)          0.0005         estimate D2E/DX2                !
 ! D89   D(16,15,32,41)          0.0002         estimate D2E/DX2                !
 ! D90   D(16,15,32,51)        180.0            estimate D2E/DX2                !
 ! D91   D(24,15,32,41)        180.0            estimate D2E/DX2                !
 ! D92   D(24,15,32,51)         -0.0003         estimate D2E/DX2                !
 ! D93   D(13,16,33,42)       -179.9999         estimate D2E/DX2                !
 ! D94   D(13,16,33,52)         -0.0002         estimate D2E/DX2                !
 ! D95   D(15,16,33,42)          0.0004         estimate D2E/DX2                !
 ! D96   D(15,16,33,52)        180.0            estimate D2E/DX2                !
 ! D97   D(21,17,18,19)         -0.0005         estimate D2E/DX2                !
 ! D98   D(21,17,18,34)       -179.9999         estimate D2E/DX2                !
 ! D99   D(23,17,18,19)        179.9999         estimate D2E/DX2                !
 ! D100  D(23,17,18,34)          0.0006         estimate D2E/DX2                !
 ! D101  D(18,17,21,20)          0.0005         estimate D2E/DX2                !
 ! D102  D(18,17,21,36)       -179.9997         estimate D2E/DX2                !
 ! D103  D(23,17,21,20)       -179.9999         estimate D2E/DX2                !
 ! D104  D(23,17,21,36)         -0.0001         estimate D2E/DX2                !
 ! D105  D(18,17,23,24)         -0.0006         estimate D2E/DX2                !
 ! D106  D(18,17,23,38)        179.9998         estimate D2E/DX2                !
 ! D107  D(21,17,23,24)        179.9999         estimate D2E/DX2                !
 ! D108  D(21,17,23,38)          0.0003         estimate D2E/DX2                !
 ! D109  D(17,18,19,20)          0.0003         estimate D2E/DX2                !
 ! D110  D(17,18,19,22)        179.9999         estimate D2E/DX2                !
 ! D111  D(34,18,19,20)        179.9996         estimate D2E/DX2                !
 ! D112  D(34,18,19,22)         -0.0008         estimate D2E/DX2                !
 ! D113  D(18,19,20,21)          0.0            estimate D2E/DX2                !
 ! D114  D(18,19,20,35)        179.9996         estimate D2E/DX2                !
 ! D115  D(22,19,20,21)       -179.9995         estimate D2E/DX2                !
 ! D116  D(22,19,20,35)          0.0            estimate D2E/DX2                !
 ! D117  D(18,19,22,3)           0.0005         estimate D2E/DX2                !
 ! D118  D(18,19,22,37)       -179.9996         estimate D2E/DX2                !
 ! D119  D(20,19,22,3)        -180.0            estimate D2E/DX2                !
 ! D120  D(20,19,22,37)         -0.0001         estimate D2E/DX2                !
 ! D121  D(19,20,21,17)         -0.0004         estimate D2E/DX2                !
 ! D122  D(19,20,21,36)        179.9999         estimate D2E/DX2                !
 ! D123  D(35,20,21,17)       -179.9999         estimate D2E/DX2                !
 ! D124  D(35,20,21,36)          0.0003         estimate D2E/DX2                !
 ! D125  D(19,20,35,43)       -179.9996         estimate D2E/DX2                !
 ! D126  D(19,20,35,53)         -0.0002         estimate D2E/DX2                !
 ! D127  D(21,20,35,43)         -0.0001         estimate D2E/DX2                !
 ! D128  D(21,20,35,53)        179.9993         estimate D2E/DX2                !
 ! D129  D(17,21,36,44)       -179.9995         estimate D2E/DX2                !
 ! D130  D(17,21,36,54)         -0.0003         estimate D2E/DX2                !
 ! D131  D(20,21,36,44)          0.0002         estimate D2E/DX2                !
 ! D132  D(20,21,36,54)        179.9994         estimate D2E/DX2                !
 ! D133  D(17,23,24,14)          0.0005         estimate D2E/DX2                !
 ! D134  D(17,23,24,15)        180.0            estimate D2E/DX2                !
 ! D135  D(38,23,24,14)       -179.9999         estimate D2E/DX2                !
 ! D136  D(38,23,24,15)         -0.0004         estimate D2E/DX2                !
 ! D137  D(1,25,45,46)           0.0002         estimate D2E/DX2                !
 ! D138  D(1,25,45,61)        -179.9996         estimate D2E/DX2                !
 ! D139  D(47,25,45,46)       -180.0            estimate D2E/DX2                !
 ! D140  D(47,25,45,61)          0.0001         estimate D2E/DX2                !
 ! D141  D(2,26,46,45)           0.0004         estimate D2E/DX2                !
 ! D142  D(2,26,46,62)        -179.9996         estimate D2E/DX2                !
 ! D143  D(48,26,46,45)        180.0            estimate D2E/DX2                !
 ! D144  D(48,26,46,62)          0.0            estimate D2E/DX2                !
 ! D145  D(10,29,39,40)          0.0008         estimate D2E/DX2                !
 ! D146  D(10,29,39,55)        179.9999         estimate D2E/DX2                !
 ! D147  D(49,29,39,40)       -180.0            estimate D2E/DX2                !
 ! D148  D(49,29,39,55)         -0.0009         estimate D2E/DX2                !
 ! D149  D(11,30,40,39)          0.0005         estimate D2E/DX2                !
 ! D150  D(11,30,40,56)        179.9997         estimate D2E/DX2                !
 ! D151  D(50,30,40,39)        179.9999         estimate D2E/DX2                !
 ! D152  D(50,30,40,56)         -0.0009         estimate D2E/DX2                !
 ! D153  D(15,32,41,42)         -0.0002         estimate D2E/DX2                !
 ! D154  D(15,32,41,57)        179.9996         estimate D2E/DX2                !
 ! D155  D(51,32,41,42)        180.0            estimate D2E/DX2                !
 ! D156  D(51,32,41,57)         -0.0001         estimate D2E/DX2                !
 ! D157  D(16,33,42,41)         -0.0004         estimate D2E/DX2                !
 ! D158  D(16,33,42,58)        179.9996         estimate D2E/DX2                !
 ! D159  D(52,33,42,41)        180.0            estimate D2E/DX2                !
 ! D160  D(52,33,42,58)          0.0            estimate D2E/DX2                !
 ! D161  D(20,35,43,44)         -0.0005         estimate D2E/DX2                !
 ! D162  D(20,35,43,59)       -179.9997         estimate D2E/DX2                !
 ! D163  D(53,35,43,44)       -179.9999         estimate D2E/DX2                !
 ! D164  D(53,35,43,59)          0.0009         estimate D2E/DX2                !
 ! D165  D(21,36,44,43)         -0.0008         estimate D2E/DX2                !
 ! D166  D(21,36,44,60)       -179.9999         estimate D2E/DX2                !
 ! D167  D(54,36,44,43)        180.0            estimate D2E/DX2                !
 ! D168  D(54,36,44,60)          0.0009         estimate D2E/DX2                !
 ! D169  D(29,39,40,30)         -0.001          estimate D2E/DX2                !
 ! D170  D(29,39,40,56)        179.9998         estimate D2E/DX2                !
 ! D171  D(55,39,40,30)        179.9999         estimate D2E/DX2                !
 ! D172  D(55,39,40,56)          0.0007         estimate D2E/DX2                !
 ! D173  D(32,41,42,33)          0.0003         estimate D2E/DX2                !
 ! D174  D(32,41,42,58)       -179.9997         estimate D2E/DX2                !
 ! D175  D(57,41,42,33)       -179.9996         estimate D2E/DX2                !
 ! D176  D(57,41,42,58)          0.0005         estimate D2E/DX2                !
 ! D177  D(35,43,44,36)          0.001          estimate D2E/DX2                !
 ! D178  D(35,43,44,60)       -179.9999         estimate D2E/DX2                !
 ! D179  D(59,43,44,36)       -179.9998         estimate D2E/DX2                !
 ! D180  D(59,43,44,60)         -0.0007         estimate D2E/DX2                !
 ! D181  D(25,45,46,26)         -0.0003         estimate D2E/DX2                !
 ! D182  D(25,45,46,62)        179.9997         estimate D2E/DX2                !
 ! D183  D(61,45,46,26)        179.9996         estimate D2E/DX2                !
 ! D184  D(61,45,46,62)         -0.0005         estimate D2E/DX2                !
 --------------------------------------------------------------------------------
 Trust Radius=3.00D-01 FncErr=1.00D-07 GrdErr=1.00D-06
 Number of steps in this run=    372 maximum allowed number of steps=    372.
 GradGradGradGradGradGradGradGradGradGradGradGradGradGradGradGradGradGrad

 Stoichiometry    C36H22N4
 Framework group  CI[X(C36H22N4)]
 Deg. of freedom    90
 Full point group                 CI      NOp   2
 Largest Abelian subgroup         CI      NOp   2
 Largest concise Abelian subgroup CI      NOp   2
                         Standard orientation:                         
 ---------------------------------------------------------------------
 Center     Atomic      Atomic             Coordinates (Angstroms)
 Number     Number       Type             X           Y           Z
 ---------------------------------------------------------------------
      1          6           0       -1.722520    2.205550    3.339260
      2          6           0       -0.652210    1.640980    3.982970
      3          6           0        0.061475    0.841596    2.985460
      4          6           0       -1.661820    1.750610    1.949040
      5          7           0       -0.582771    0.943958    1.796910
      6          6           0       -2.591560    2.105760    0.933555
      7          6           0       -2.556610    1.678820   -0.423514
      8          7           0       -1.629940    0.859766   -0.980271
      9          6           0       -1.951920    0.699365   -2.288000
     10          6           0       -3.478310    2.041770   -1.393550
     11          6           0       -3.099260    1.427800   -2.562320
     12          6           0       -1.238890   -0.085257   -3.237250
     13          6           0       -0.061475   -0.841596   -2.985460
     14          7           0        0.582771   -0.943958   -1.796910
     15          6           0        1.722520   -2.205550   -3.339260
     16          6           0        0.652210   -1.640980   -3.982970
     17          6           0        2.556610   -1.678820    0.423514
     18          7           0        1.629940   -0.859766    0.980271
     19          6           0        1.951920   -0.699365    2.288000
     20          6           0        3.099260   -1.427800    2.562320
     21          6           0        3.478310   -2.041770    1.393550
     22          6           0        1.238890    0.085257    3.237250
     23          6           0        2.591560   -2.105760   -0.933555
     24          6           0        1.661820   -1.750610   -1.949040
     25          6           0       -2.620460    3.037630    4.008370
     26          6           0       -0.410551    1.871930    5.337450
     27          1           0       -3.400770    2.763840    1.226940
     28          1           0       -0.827470    0.436478   -0.497655
     29          6           0       -4.610990    2.859110   -1.333030
     30          6           0       -3.829350    1.593040   -3.743130
     31          1           0       -1.624710   -0.112978   -4.249350
     32          6           0        2.620460   -3.037630   -4.008370
     33          6           0        0.410551   -1.871930   -5.337450
     34          1           0        0.827470   -0.436478    0.497655
     35          6           0        3.829350   -1.593040    3.743130
     36          6           0        4.610990   -2.859110    1.333030
     37          1           0        1.624710    0.112978    4.249350
     38          1           0        3.400770   -2.763840   -1.226940
     39          6           0       -5.362460    3.041370   -2.507370
     40          6           0       -4.972910    2.410380   -3.708500
     41          6           0        2.401800   -3.288270   -5.374510
     42          6           0        1.299340   -2.706740   -6.037550
     43          6           0        4.972910   -2.410380    3.708500
     44          6           0        5.362460   -3.041370    2.507370
     45          6           0       -2.401800    3.288270    5.374510
     46          6           0       -1.299340    2.706740    6.037550
     47          1           0       -3.463380    3.480780    3.496440
     48          1           0        0.435068    1.424400    5.841030
     49          1           0       -4.911080    3.343350   -0.413957
     50          1           0       -3.532640    1.110580   -4.664240
     51          1           0        3.463380   -3.480780   -3.496440
     52          1           0       -0.435068   -1.424400   -5.841030
     53          1           0        3.532640   -1.110580    4.664240
     54          1           0        4.911080   -3.343350    0.413957
     55          1           0       -6.244140    3.668710   -2.490210
     56          1           0       -5.557470    2.556460   -4.607480
     57          1           0        3.081420   -3.929600   -5.919950
     58          1           0        1.137610   -2.904280   -7.088990
     59          1           0        5.557470   -2.556460    4.607480
     60          1           0        6.244140   -3.668710    2.490210
     61          1           0       -3.081420    3.929600    5.919950
     62          1           0       -1.137610    2.904280    7.088990
 ---------------------------------------------------------------------
 Rotational constants (GHZ):      0.0872744      0.0850525      0.0430746
 Standard basis: 6-31G(d) (6D, 7F)
 There are   322 symmetry adapted basis functions of AG  symmetry.
 There are   322 symmetry adapted basis functions of AU  symmetry.
 Integral buffers will be    131072 words long.
 Raffenetti 2 integral format.
 Two-electron integral symmetry is turned on.
   644 basis functions,  1208 primitive gaussians,   644 cartesian basis functions
   133 alpha electrons      133 beta electrons
       nuclear repulsion energy      3982.0447579494 Hartrees.
 NAtoms=   62 NActive=   62 NUniq=   31 SFac= 4.00D+00 NAtFMM=   50 NAOKFM=T Big=F
 One-electron integrals computed using PRISM.
 NBasis=   644 RedAO= T  NBF=   322   322
 NBsUse=   644 1.00D-06 NBFU=   322   322
 Harris functional with IExCor=  402 diagonalized for initial guess.
 ExpMin= 1.61D-01 ExpMax= 4.17D+03 ExpMxC= 6.27D+02 IAcc=1 IRadAn=         1 AccDes= 0.00D+00
 HarFok:  IExCor=  402 AccDes= 0.00D+00 IRadAn=         1 IDoV= 1
 ScaDFX=  1.000000  1.000000  1.000000  1.000000
 FoFCou: FMM=F IPFlag=           0 FMFlag=      100000 FMFlg1=        2000
         NFxFlg=           0 DoJE=T BraDBF=F KetDBF=T FulRan=T
         Omega=  0.000000  0.000000  1.000000  0.000000  0.000000 ICntrl=     500 IOpCl=  0
         NMat0=    1 NMatS0=    1 NMatT0=    0 NMatD0=    1 NMtDS0=    0 NMtDT0=    0
         I1Cent=           4 NGrid=           0.
 Petite list used in FoFCou.
 Initial guess orbital symmetries:
       Occupied  (AU) (AG) (AG) (AU) (AU) (AG) (AG) (AU) (AU) (AG)
                 (AG) (AU) (AU) (AG) (AG) (AU) (AU) (AG) (AU) (AG)
                 (AG) (AU) (AG) (AU) (AG) (AU) (AG) (AU) (AU) (AG)
                 (AU) (AG) (AU) (AG) (AU) (AG) (AG) (AU) (AG) (AU)
                 (AG) (AU) (AU) (AG) (AG) (AU) (AU) (AG) (AG) (AU)
                 (AU) (AG) (AU) (AG) (AU) (AG) (AG) (AU) (AU) (AG)
                 (AG) (AU) (AU) (AG) (AU) (AU) (AG) (AG) (AU) (AG)
                 (AU) (AG) (AG) (AG) (AU) (AU) (AG) (AU) (AU) (AG)
                 (AG) (AU) (AU) (AG) (AG) (AU) (AU) (AG) (AU) (AG)
                 (AG) (AU) (AG) (AU) (AG) (AU) (AG) (AG) (AU) (AU)
                 (AG) (AU) (AG) (AU) (AU) (AG) (AU) (AG) (AU) (AG)
                 (AG) (AU) (AU) (AG) (AU) (AG) (AG) (AU) (AU) (AG)
                 (AG) (AU) (AU) (AG) (AU) (AG) (AG) (AU) (AU) (AG)
                 (AG) (AU) (AU)
       Virtual   (AG) (AG) (AU) (AU) (AG) (AU) (AG) (AU) (AG) (AG)
                 (AU) (AU) (AG) (AG) (AG) (AG) (AU) (AU) (AU) (AG)
                 (AU) (AG) (AG) (AU) (AU) (AG) (AG) (AU) (AU) (AU)
                 (AG) (AG) (AU) (AG) (AU) (AG) (AU) (AG) (AU) (AG)
                 (AU) (AG) (AU) (AG) (AU) (AG) (AG) (AU) (AU) (AU)
                 (AG) (AG) (AG) (AU) (AU) (AG) (AU) (AG) (AU) (AG)
                 (AG) (AU) (AU) (AU) (AG) (AG) (AG) (AU) (AU) (AG)
                 (AU) (AG) (AU) (AU) (AU) (AG) (AG) (AG) (AU) (AG)
                 (AG) (AU) (AU) (AG) (AU) (AU) (AG) (AG) (AG) (AG)
                 (AU) (AU) (AU) (AU) (AU) (AG) (AG) (AU) (AG) (AG)
                 (AU) (AG) (AG) (AU) (AU) (AU) (AG) (AU) (AG) (AG)
                 (AG) (AU) (AU) (AU) (AG) (AG) (AU) (AU) (AU) (AG)
                 (AG) (AU) (AU) (AG) (AG) (AG) (AU) (AU) (AG) (AG)
                 (AG) (AU) (AU) (AU) (AG) (AU) (AG) (AG) (AG) (AU)
                 (AU) (AU) (AG) (AG) (AU) (AU) (AG) (AG) (AU) (AU)
                 (AU) (AG) (AU) (AG) (AG) (AU) (AG) (AU) (AG) (AU)
                 (AG) (AU) (AU) (AG) (AU) (AG) (AG) (AU) (AU) (AG)
                 (AG) (AG) (AG) (AU) (AU) (AG) (AU) (AU) (AG) (AU)
                 (AG) (AG) (AU) (AU) (AG) (AU) (AG) (AG) (AU) (AG)
                 (AG) (AU) (AU) (AU) (AG) (AU) (AG) (AU) (AG) (AG)
                 (AU) (AG) (AU) (AG) (AG) (AU) (AU) (AU) (AG) (AU)
                 (AG) (AG) (AG) (AG) (AU) (AU) (AU) (AG) (AU) (AU)
                 (AG) (AU) (AU) (AG) (AG) (AG) (AG) (AG) (AU) (AU)
                 (AU) (AU) (AG) (AU) (AU) (AU) (AG) (AG) (AG) (AG)
                 (AU) (AG) (AU) (AG) (AU) (AG) (AU) (AG) (AU) (AG)
                 (AG) (AU) (AU) (AU) (AG) (AG) (AU) (AG) (AG) (AU)
                 (AU) (AU) (AG) (AG) (AG) (AG) (AU) (AU) (AG) (AU)
                 (AU) (AU) (AG) (AG) (AU) (AU) (AG) (AG) (AG) (AU)
                 (AU) (AU) (AU) (AG) (AG) (AG) (AU) (AU) (AG) (AG)
                 (AG) (AU) (AU) (AG) (AU) (AU) (AG) (AG) (AG) (AU)
                 (AU) (AU) (AG) (AG) (AG) (AU) (AU) (AG) (AG) (AU)
                 (AU) (AG) (AG) (AU) (AU) (AG) (AU) (AU) (AU) (AG)
                 (AG) (AG) (AG) (AU) (AG) (AU) (AU) (AG) (AU) (AU)
                 (AU) (AG) (AG) (AG) (AU) (AU) (AG) (AG) (AU) (AU)
                 (AU) (AG) (AG) (AG) (AU) (AU) (AG) (AU) (AU) (AG)
                 (AG) (AG) (AG) (AG) (AU) (AU) (AU) (AG) (AU) (AU)
                 (AG) (AU) (AU) (AG) (AG) (AG) (AG) (AU) (AU) (AG)
                 (AG) (AU) (AU) (AU) (AG) (AU) (AG) (AG) (AU) (AU)
                 (AG) (AG) (AU) (AU) (AG) (AU) (AG) (AU) (AG) (AU)
                 (AU) (AG) (AG) (AG) (AU) (AG) (AU) (AG) (AG) (AU)
                 (AU) (AU) (AU) (AG) (AG) (AG) (AG) (AU) (AG) (AG)
                 (AU) (AU) (AU) (AU) (AU) (AG) (AG) (AG) (AU) (AG)
                 (AU) (AU) (AG) (AU) (AG) (AU) (AU) (AG) (AG) (AG)
                 (AU) (AU) (AG) (AU) (AG) (AG) (AU) (AU) (AG) (AG)
                 (AU) (AU) (AG) (AG) (AU) (AU) (AU) (AG) (AG) (AU)
                 (AG) (AU) (AU) (AG) (AG) (AG) (AU) (AG) (AU) (AU)
                 (AG) (AU) (AG) (AG) (AU) (AU) (AG) (AG) (AU) (AU)
                 (AG) (AU) (AG) (AG) (AU) (AU) (AG) (AG) (AG) (AU)
                 (AU) (AG) (AU) (AG) (AU) (AG) (AU) (AU) (AG) (AG)
                 (AU) (AG) (AU) (AU) (AG) (AG) (AU) (AG) (AU) (AG)
                 (AU) (AG) (AU) (AU) (AG) (AU) (AG) (AG) (AU) (AU)
                 (AG)
 The electronic state of the initial guess is 1-AG.
 Requested convergence on RMS density matrix=1.00D-08 within 128 cycles.
 Requested convergence on MAX density matrix=1.00D-06.
 Requested convergence on             energy=1.00D-06.
 No special actions if energy rises.
 Integral accuracy reduced to 1.0D-05 until final iterations.
 Initial convergence to 1.0D-05 achieved.  Increase integral accuracy.
 SCF Done:  E(RB3LYP) =  -1604.12509834     A.U. after   14 cycles
             Convg  =    0.8193D-08             -V/T =  2.0092

 **********************************************************************

            Population analysis using the SCF density.

 **********************************************************************

 Orbital symmetries:
       Occupied  (AU) (AG) (AG) (AU) (AU) (AG) (AU) (AG) (AU) (AG)
                 (AG) (AU) (AU) (AG) (AG) (AU) (AU) (AG) (AG) (AU)
                 (AU) (AG) (AU) (AG) (AU) (AG) (AU) (AG) (AG) (AU)
                 (AG) (AU) (AU) (AG) (AG) (AU) (AU) (AG) (AG) (AU)
                 (AG) (AU) (AU) (AG) (AG) (AU) (AU) (AG) (AG) (AU)
                 (AU) (AG) (AU) (AG) (AU) (AG) (AU) (AG) (AU) (AG)
                 (AG) (AG) (AU) (AU) (AU) (AU) (AG) (AG) (AU) (AG)
                 (AG) (AU) (AG) (AG) (AU) (AU) (AG) (AU) (AU) (AG)
                 (AU) (AG) (AU) (AG) (AU) (AG) (AU) (AU) (AG) (AG)
                 (AG) (AG) (AU) (AU) (AG) (AU) (AG) (AU) (AG) (AU)
                 (AU) (AG) (AG) (AU) (AU) (AG) (AU) (AG) (AU) (AG)
                 (AU) (AG) (AG) (AU) (AG) (AU) (AG) (AU) (AU) (AG)
                 (AG) (AU) (AU) (AG) (AU) (AG) (AU) (AG) (AU) (AG)
                 (AG) (AU) (AU)
       Virtual   (AG) (AG) (AU) (AG) (AU) (AU) (AG) (AU) (AG) (AG)
                 (AU) (AU) (AG) (AU) (AU) (AG) (AG) (AG) (AU) (AU)
                 (AG) (AG) (AG) (AG) (AU) (AU) (AU) (AG) (AU) (AG)
                 (AU) (AG) (AG) (AU) (AG) (AG) (AU) (AU) (AU) (AU)
                 (AG) (AG) (AU) (AG) (AU) (AG) (AU) (AG) (AU) (AG)
                 (AG) (AU) (AU) (AG) (AU) (AU) (AG) (AG) (AG) (AU)
                 (AG) (AU) (AU) (AU) (AG) (AU) (AG) (AU) (AU) (AG)
                 (AG) (AU) (AG) (AG) (AU) (AU) (AG) (AG) (AU) (AG)
                 (AU) (AU) (AG) (AU) (AU) (AG) (AG) (AG) (AU) (AG)
                 (AU) (AU) (AU) (AG) (AG) (AG) (AU) (AG) (AU) (AU)
                 (AG) (AG) (AU) (AU) (AU) (AG) (AG) (AG) (AG) (AU)
                 (AU) (AG) (AG) (AU) (AU) (AG) (AU) (AU) (AG) (AU)
                 (AG) (AU) (AG) (AU) (AG) (AU) (AG) (AG) (AU) (AG)
                 (AU) (AG) (AG) (AU) (AU) (AG) (AU) (AG) (AU) (AU)
                 (AG) (AU) (AG) (AG) (AU) (AU) (AG) (AG) (AU) (AU)
                 (AU) (AG) (AG) (AU) (AG) (AU) (AU) (AU) (AG) (AG)
                 (AU) (AG) (AG) (AG) (AU) (AG) (AU) (AU) (AG) (AG)
                 (AU) (AG) (AU) (AU) (AG) (AG) (AU) (AU) (AG) (AU)
                 (AG) (AU) (AU) (AG) (AG) (AU) (AG) (AG) (AG) (AU)
                 (AG) (AU) (AU) (AU) (AG) (AG) (AU) (AU) (AG) (AG)
                 (AG) (AU) (AU) (AG) (AG) (AU) (AU) (AG) (AU) (AU)
                 (AG) (AG) (AU) (AG) (AG) (AU) (AU) (AG) (AU) (AU)
                 (AG) (AG) (AU) (AG) (AG) (AU) (AU) (AG) (AU) (AU)
                 (AG) (AG) (AU) (AU) (AU) (AG) (AG) (AU) (AG) (AG)
                 (AG) (AU) (AG) (AU) (AG) (AU) (AU) (AG) (AU) (AG)
                 (AU) (AG) (AU) (AG) (AG) (AU) (AU) (AG) (AG) (AU)
                 (AG) (AG) (AU) (AU) (AU) (AG) (AU) (AG) (AU) (AG)
                 (AG) (AU) (AU) (AU) (AG) (AU) (AG) (AU) (AU) (AG)
                 (AU) (AG) (AG) (AU) (AG) (AG) (AU) (AG) (AU) (AG)
                 (AG) (AU) (AU) (AG) (AU) (AU) (AG) (AG) (AG) (AU)
                 (AU) (AG) (AU) (AG) (AU) (AU) (AU) (AG) (AG) (AG)
                 (AU) (AU) (AG) (AU) (AG) (AU) (AG) (AU) (AU) (AG)
                 (AG) (AG) (AG) (AU) (AU) (AG) (AU) (AU) (AG) (AU)
                 (AG) (AG) (AU) (AU) (AG) (AU) (AG) (AU) (AU) (AG)
                 (AG) (AU) (AG) (AU) (AG) (AU) (AU) (AG) (AU) (AG)
                 (AG) (AG) (AG) (AG) (AU) (AU) (AG) (AU) (AU) (AU)
                 (AG) (AU) (AU) (AG) (AG) (AG) (AU) (AG) (AU) (AG)
                 (AU) (AG) (AG) (AU) (AU) (AU) (AG) (AG) (AU) (AU)
                 (AG) (AG) (AU) (AU) (AU) (AG) (AG) (AU) (AG) (AU)
                 (AU) (AG) (AG) (AG) (AU) (AU) (AG) (AG) (AG) (AU)
                 (AU) (AU) (AU) (AG) (AG) (AG) (AG) (AU) (AU) (AU)
                 (AG) (AG) (AU) (AG) (AU) (AG) (AU) (AG) (AU) (AU)
                 (AU) (AG) (AG) (AU) (AU) (AG) (AU) (AG) (AG) (AG)
                 (AU) (AG) (AU) (AU) (AG) (AG) (AU) (AU) (AG) (AG)
                 (AU) (AU) (AG) (AG) (AU) (AU) (AG) (AU) (AU) (AG)
                 (AG) (AU) (AG) (AU) (AG) (AG) (AU) (AG) (AU) (AU)
                 (AG) (AU) (AG) (AG) (AU) (AU) (AG) (AG) (AU) (AU)
                 (AG) (AU) (AG) (AG) (AU) (AG) (AG) (AU) (AG) (AU)
                 (AU) (AG) (AU) (AG) (AU) (AU) (AG) (AU) (AG) (AG)
                 (AU) (AG) (AU) (AU) (AG) (AG) (AU) (AG) (AG) (AU)
                 (AU) (AG) (AU) (AG) (AU) (AU) (AG) (AG) (AU) (AU)
                 (AG)
 The electronic state is 1-AG.
 Alpha  occ. eigenvalues --  -14.38398 -14.38398 -14.31191 -14.31191 -10.23350
 Alpha  occ. eigenvalues --  -10.23350 -10.23349 -10.23349 -10.21835 -10.21835
 Alpha  occ. eigenvalues --  -10.21834 -10.21834 -10.20202 -10.20202 -10.20201
 Alpha  occ. eigenvalues --  -10.20201 -10.20031 -10.20031 -10.19983 -10.19983
 Alpha  occ. eigenvalues --  -10.19969 -10.19969 -10.19968 -10.19968 -10.19183
 Alpha  occ. eigenvalues --  -10.19183 -10.19120 -10.19120 -10.19118 -10.19118
 Alpha  occ. eigenvalues --  -10.19118 -10.19118 -10.19018 -10.19018 -10.18972
 Alpha  occ. eigenvalues --  -10.18972 -10.18212 -10.18212 -10.18146 -10.18146
 Alpha  occ. eigenvalues --   -1.00732  -1.00651  -0.94688  -0.94563  -0.86315
 Alpha  occ. eigenvalues --   -0.86294  -0.84262  -0.84217  -0.81697  -0.80236
 Alpha  occ. eigenvalues --   -0.78474  -0.78024  -0.77887  -0.76288  -0.74432
 Alpha  occ. eigenvalues --   -0.74323  -0.74197  -0.74029  -0.73554  -0.73398
 Alpha  occ. eigenvalues --   -0.69864  -0.65862  -0.65856  -0.65813  -0.64559
 Alpha  occ. eigenvalues --   -0.61651  -0.61588  -0.60680  -0.59887  -0.58814
 Alpha  occ. eigenvalues --   -0.58724  -0.58307  -0.57061  -0.56463  -0.56294
 Alpha  occ. eigenvalues --   -0.53549  -0.52167  -0.51402  -0.51314  -0.50270
 Alpha  occ. eigenvalues --   -0.49913  -0.49726  -0.47598  -0.47268  -0.46511
 Alpha  occ. eigenvalues --   -0.45068  -0.44900  -0.44900  -0.44778  -0.44673
 Alpha  occ. eigenvalues --   -0.44489  -0.44409  -0.44212  -0.44090  -0.43858
 Alpha  occ. eigenvalues --   -0.43194  -0.42386  -0.41593  -0.41094  -0.41029
 Alpha  occ. eigenvalues --   -0.40601  -0.40572  -0.40432  -0.39937  -0.38262
 Alpha  occ. eigenvalues --   -0.38143  -0.36788  -0.36674  -0.35723  -0.35621
 Alpha  occ. eigenvalues --   -0.35590  -0.35377  -0.34847  -0.34174  -0.34079
 Alpha  occ. eigenvalues --   -0.33966  -0.33769  -0.33411  -0.32707  -0.29785
 Alpha  occ. eigenvalues --   -0.28581  -0.26983  -0.26401  -0.26319  -0.25918
 Alpha  occ. eigenvalues --   -0.25868  -0.24316  -0.24144  -0.23558  -0.23399
 Alpha  occ. eigenvalues --   -0.22900  -0.19008  -0.17188
 Alpha virt. eigenvalues --   -0.08052  -0.07981  -0.03142  -0.02292  -0.02197
 Alpha virt. eigenvalues --   -0.01149  -0.00990   0.03630   0.03770   0.04089
 Alpha virt. eigenvalues --    0.06750   0.07120   0.08409   0.08833   0.09130
 Alpha virt. eigenvalues --    0.09591   0.09831   0.10550   0.11378   0.11578
 Alpha virt. eigenvalues --    0.12033   0.12549   0.13247   0.14861   0.15308
 Alpha virt. eigenvalues --    0.15691   0.15824   0.16005   0.16642   0.16976
 Alpha virt. eigenvalues --    0.17109   0.17645   0.18329   0.18769   0.19593
 Alpha virt. eigenvalues --    0.19921   0.19963   0.20164   0.20517   0.21818
 Alpha virt. eigenvalues --    0.22403   0.22671   0.22967   0.23892   0.24177
 Alpha virt. eigenvalues --    0.25458   0.26132   0.26605   0.27301   0.27425
 Alpha virt. eigenvalues --    0.27789   0.27888   0.28462   0.28464   0.28914
 Alpha virt. eigenvalues --    0.29873   0.30276   0.31124   0.32497   0.32877
 Alpha virt. eigenvalues --    0.33323   0.34193   0.35208   0.35709   0.36695
 Alpha virt. eigenvalues --    0.37430   0.38480   0.39874   0.39934   0.39942
 Alpha virt. eigenvalues --    0.41287   0.43004   0.43018   0.44140   0.44158
 Alpha virt. eigenvalues --    0.44686   0.45803   0.47020   0.49237   0.49240
 Alpha virt. eigenvalues --    0.49920   0.49996   0.50287   0.50623   0.50763
 Alpha virt. eigenvalues --    0.50883   0.50981   0.51400   0.51999   0.52289
 Alpha virt. eigenvalues --    0.53666   0.53965   0.54187   0.54428   0.54595
 Alpha virt. eigenvalues --    0.54604   0.54624   0.55506   0.56033   0.56365
 Alpha virt. eigenvalues --    0.57049   0.57081   0.57104   0.57183   0.57887
 Alpha virt. eigenvalues --    0.57918   0.57979   0.58122   0.58447   0.58634
 Alpha virt. eigenvalues --    0.59211   0.59239   0.59317   0.59425   0.60207
 Alpha virt. eigenvalues --    0.60564   0.60733   0.60827   0.60848   0.60918
 Alpha virt. eigenvalues --    0.61110   0.61272   0.61312   0.61319   0.61609
 Alpha virt. eigenvalues --    0.61843   0.62338   0.62702   0.62912   0.63494
 Alpha virt. eigenvalues --    0.64107   0.64416   0.64796   0.64817   0.65068
 Alpha virt. eigenvalues --    0.65315   0.65793   0.65863   0.66081   0.66110
 Alpha virt. eigenvalues --    0.68628   0.68725   0.68955   0.69143   0.69428
 Alpha virt. eigenvalues --    0.71058   0.72179   0.72993   0.74278   0.74402
 Alpha virt. eigenvalues --    0.75045   0.75458   0.76234   0.77901   0.78423
 Alpha virt. eigenvalues --    0.79454   0.79482   0.79889   0.80311   0.81490
 Alpha virt. eigenvalues --    0.82164   0.82708   0.82886   0.83060   0.83504
 Alpha virt. eigenvalues --    0.83802   0.83813   0.84562   0.84786   0.84820
 Alpha virt. eigenvalues --    0.84901   0.85698   0.86585   0.86941   0.87280
 Alpha virt. eigenvalues --    0.87853   0.88129   0.88389   0.88714   0.89342
 Alpha virt. eigenvalues --    0.89638   0.89704   0.89871   0.89950   0.90467
 Alpha virt. eigenvalues --    0.90671   0.90852   0.91315   0.91516   0.92411
 Alpha virt. eigenvalues --    0.93618   0.94620   0.94636   0.95475   0.95768
 Alpha virt. eigenvalues --    0.96664   0.96924   0.97000   0.99310   0.99793
 Alpha virt. eigenvalues --    1.00612   1.00753   1.01209   1.02088   1.02757
 Alpha virt. eigenvalues --    1.03962   1.04170   1.07893   1.08242   1.09890
 Alpha virt. eigenvalues --    1.10251   1.11906   1.12094   1.12607   1.12683
 Alpha virt. eigenvalues --    1.12779   1.12783   1.15394   1.15794   1.15958
 Alpha virt. eigenvalues --    1.17341   1.17451   1.17510   1.18880   1.19399
 Alpha virt. eigenvalues --    1.19697   1.20694   1.20820   1.21061   1.21555
 Alpha virt. eigenvalues --    1.22561   1.22992   1.24738   1.24936   1.25671
 Alpha virt. eigenvalues --    1.27155   1.28160   1.28359   1.28523   1.28730
 Alpha virt. eigenvalues --    1.29721   1.29744   1.31457   1.31603   1.32799
 Alpha virt. eigenvalues --    1.32968   1.33466   1.34420   1.34697   1.36617
 Alpha virt. eigenvalues --    1.37116   1.38000   1.38048   1.38449   1.39844
 Alpha virt. eigenvalues --    1.40131   1.40260   1.42021   1.42495   1.42854
 Alpha virt. eigenvalues --    1.43144   1.43217   1.43552   1.43941   1.44495
 Alpha virt. eigenvalues --    1.45297   1.45394   1.45490   1.46016   1.46067
 Alpha virt. eigenvalues --    1.46330   1.46442   1.46991   1.47967   1.48652
 Alpha virt. eigenvalues --    1.48663   1.48725   1.48746   1.48797   1.49383
 Alpha virt. eigenvalues --    1.49789   1.49791   1.50412   1.50485   1.53734
 Alpha virt. eigenvalues --    1.55452   1.56926   1.63927   1.64270   1.66066
 Alpha virt. eigenvalues --    1.66187   1.67433   1.68408   1.69104   1.71801
 Alpha virt. eigenvalues --    1.72308   1.74138   1.74285   1.75431   1.77449
 Alpha virt. eigenvalues --    1.77973   1.78809   1.79108   1.79353   1.80419
 Alpha virt. eigenvalues --    1.80589   1.80840   1.81078   1.82156   1.82198
 Alpha virt. eigenvalues --    1.82392   1.83296   1.83784   1.84531   1.84680
 Alpha virt. eigenvalues --    1.85763   1.86039   1.87456   1.87545   1.87946
 Alpha virt. eigenvalues --    1.88071   1.88408   1.89532   1.91284   1.92390
 Alpha virt. eigenvalues --    1.92392   1.92633   1.92783   1.92975   1.93739
 Alpha virt. eigenvalues --    1.93767   1.94370   1.94526   1.99432   1.99476
 Alpha virt. eigenvalues --    1.99782   1.99981   2.02276   2.02444   2.02489
 Alpha virt. eigenvalues --    2.02732   2.03435   2.03996   2.04694   2.05054
 Alpha virt. eigenvalues --    2.05183   2.05875   2.06083   2.07452   2.07945
 Alpha virt. eigenvalues --    2.08140   2.08635   2.09965   2.10000   2.10254
 Alpha virt. eigenvalues --    2.10531   2.11313   2.11909   2.12012   2.17316
 Alpha virt. eigenvalues --    2.18174   2.18189   2.18429   2.18903   2.19758
 Alpha virt. eigenvalues --    2.20182   2.22305   2.22579   2.23795   2.24710
 Alpha virt. eigenvalues --    2.24833   2.25011   2.25231   2.25279   2.25550
 Alpha virt. eigenvalues --    2.25848   2.27455   2.27915   2.28084   2.28160
 Alpha virt. eigenvalues --    2.28369   2.28418   2.28922   2.29145   2.30418
 Alpha virt. eigenvalues --    2.30663   2.30742   2.33516   2.34256   2.34512
 Alpha virt. eigenvalues --    2.38087   2.39616   2.40052   2.41279   2.44432
 Alpha virt. eigenvalues --    2.44617   2.44621   2.45244   2.46568   2.47024
 Alpha virt. eigenvalues --    2.47339   2.49021   2.50724   2.52339   2.54836
 Alpha virt. eigenvalues --    2.56303   2.56757   2.57514   2.57601   2.57762
 Alpha virt. eigenvalues --    2.58335   2.58443   2.61349   2.61962   2.62508
 Alpha virt. eigenvalues --    2.62954   2.63549   2.64321   2.65117   2.65280
 Alpha virt. eigenvalues --    2.66105   2.67249   2.67632   2.68696   2.68980
 Alpha virt. eigenvalues --    2.69160   2.69532   2.70611   2.70818   2.71181
 Alpha virt. eigenvalues --    2.71205   2.71692   2.71828   2.72204   2.72780
 Alpha virt. eigenvalues --    2.74256   2.81511   2.82130   2.82195   2.83618
 Alpha virt. eigenvalues --    2.83688   2.84235   2.85952   2.88738   2.89264
 Alpha virt. eigenvalues --    2.89912   2.91659   2.91752   2.94120   2.95477
 Alpha virt. eigenvalues --    2.97228   3.02839   3.03914   3.04305   3.05254
 Alpha virt. eigenvalues --    3.08926   3.11195   3.14851   3.16153   3.20990
 Alpha virt. eigenvalues --    3.24813   3.25158   3.33680   3.34107   3.40176
 Alpha virt. eigenvalues --    3.42602   3.44482   3.46498   3.49772   3.50994
 Alpha virt. eigenvalues --    3.51406   4.05541   4.05770   4.06568   4.07886
 Alpha virt. eigenvalues --    4.08008   4.08951   4.08976   4.09050   4.09685
 Alpha virt. eigenvalues --    4.10387   4.11012   4.12408   4.15303   4.16399
 Alpha virt. eigenvalues --    4.16738   4.16989   4.22825   4.23849   4.24299
 Alpha virt. eigenvalues --    4.26887   4.27025   4.29437   4.30113   4.32509
 Alpha virt. eigenvalues --    4.41327   4.43059   4.45316   4.45503   4.46257
 Alpha virt. eigenvalues --    4.47199   4.49189   4.50212   4.57986   4.59132
 Alpha virt. eigenvalues --    4.66040   4.72447   4.79616   4.82961   4.83876
 Alpha virt. eigenvalues --    4.84812
          Condensed to atoms (all electrons):
 Mulliken atomic charges:
              1
     1  C    0.072892
     2  C    0.072839
     3  C    0.299745
     4  C    0.299711
     5  N   -0.698398
     6  C   -0.257597
     7  C    0.347318
     8  N   -0.795691
     9  C    0.347483
    10  C    0.073505
    11  C    0.073488
    12  C   -0.257804
    13  C    0.299745
    14  N   -0.698398
    15  C    0.072892
    16  C    0.072839
    17  C    0.347318
    18  N   -0.795691
    19  C    0.347483
    20  C    0.073488
    21  C    0.073505
    22  C   -0.257804
    23  C   -0.257597
    24  C    0.299711
    25  C   -0.200803
    26  C   -0.200825
    27  H    0.139937
    28  H    0.415788
    29  C   -0.189769
    30  C   -0.189752
    31  H    0.139932
    32  C   -0.200803
    33  C   -0.200825
    34  H    0.415788
    35  C   -0.189752
    36  C   -0.189769
    37  H    0.139932
    38  H    0.139937
    39  C   -0.137811
    40  C   -0.137840
    41  C   -0.137576
    42  C   -0.137486
    43  C   -0.137840
    44  C   -0.137811
    45  C   -0.137576
    46  C   -0.137486
    47  H    0.127976
    48  H    0.127977
    49  H    0.137855
    50  H    0.137865
    51  H    0.127976
    52  H    0.127977
    53  H    0.137865
    54  H    0.137855
    55  H    0.135038
    56  H    0.135046
    57  H    0.128479
    58  H    0.128478
    59  H    0.135046
    60  H    0.135038
    61  H    0.128479
    62  H    0.128478
 Sum of Mulliken atomic charges =   0.00000
 Mulliken charges with hydrogens summed into heavy atoms:
              1
     1  C    0.072892
     2  C    0.072839
     3  C    0.299745
     4  C    0.299711
     5  N   -0.698398
     6  C   -0.117659
     7  C    0.347318
     8  N   -0.379903
     9  C    0.347483
    10  C    0.073505
    11  C    0.073488
    12  C   -0.117872
    13  C    0.299745
    14  N   -0.698398
    15  C    0.072892
    16  C    0.072839
    17  C    0.347318
    18  N   -0.379903
    19  C    0.347483
    20  C    0.073488
    21  C    0.073505
    22  C   -0.117872
    23  C   -0.117659
    24  C    0.299711
    25  C   -0.072827
    26  C   -0.072848
    29  C   -0.051915
    30  C   -0.051887
    32  C   -0.072827
    33  C   -0.072848
    35  C   -0.051887
    36  C   -0.051915
    39  C   -0.002773
    40  C   -0.002793
    41  C   -0.009097
    42  C   -0.009008
    43  C   -0.002793
    44  C   -0.002773
    45  C   -0.009097
    46  C   -0.009008
 Sum of Mulliken charges with hydrogens summed into heavy atoms =   0.00000
 Electronic spatial extent (au):  <R**2>=          22907.6853
 Charge=              0.0000 electrons
 Dipole moment (field-independent basis, Debye):
    X=              0.0000    Y=              0.0000    Z=              0.0000  Tot=              0.0000
 Quadrupole moment (field-independent basis, Debye-Ang):
   XX=           -199.6480   YY=           -220.1112   ZZ=           -196.9869
   XY=            -23.1925   XZ=             11.9721   YZ=              3.5710
 Traceless Quadrupole moment (field-independent basis, Debye-Ang):
   XX=              5.9340   YY=            -14.5292   ZZ=              8.5952
   XY=            -23.1925   XZ=             11.9721   YZ=              3.5710
 Octapole moment (field-independent basis, Debye-Ang**2):
  XXX=              0.0000  YYY=              0.0000  ZZZ=              0.0000  XYY=              0.0000
  XXY=              0.0000  XXZ=              0.0000  XZZ=              0.0000  YZZ=              0.0000
  YYZ=              0.0000  XYZ=              0.0000
 Hexadecapole moment (field-independent basis, Debye-Ang**3):
 XXXX=         -10195.8309 YYYY=          -6127.4052 ZZZZ=         -13737.5955 XXXY=           2733.7178
 XXXZ=           -677.4774 YYYX=           3237.5829 YYYZ=          -1475.6397 ZZZX=           -594.5553
 ZZZY=          -1167.2727 XXYY=          -2339.4453 XXZZ=          -3959.0994 YYZZ=          -3412.2188
 XXYZ=           -592.8313 YYXZ=           -445.6822 ZZXY=            852.9789
 N-N= 3.982044757949D+03 E-N=-1.168273207471D+04  KE= 1.589435729928D+03
 Symmetry AG   KE= 7.932164153252D+02
 Symmetry AU   KE= 7.962193146024D+02
 Calling FoFJK, ICntrl=      2127 FMM=F ISym2X=1 I1Cent= 0 IOpClX= 0 NMat=1 NMatS=1 NMatT=0.
 ***** Axes restored to original set *****
 -------------------------------------------------------------------
 Center     Atomic                   Forces (Hartrees/Bohr)
 Number     Number              X              Y              Z
 -------------------------------------------------------------------
      1        6          -0.029199174    0.016391580   -0.014269547
      2        6           0.027478556   -0.013515161    0.019759940
      3        6           0.012052306   -0.007335996    0.004016213
      4        6          -0.010338635    0.004491741   -0.009433156
      5        7           0.005707950   -0.009211592   -0.017515485
      6        6           0.022185192   -0.017090520   -0.004839320
      7        6           0.013827722    0.014677877    0.082531440
      8        7           0.006575713   -0.003485114    0.003951539
      9        6           0.054108447   -0.050532002   -0.041642048
     10        6          -0.034372725    0.025174452    0.003020631
     11        6          -0.021509948    0.004333752   -0.036630794
     12        6           0.012350380   -0.001146857    0.025608570
     13        6          -0.012052306    0.007335996   -0.004016213
     14        7          -0.005707950    0.009211592    0.017515485
     15        6           0.029199174   -0.016391580    0.014269547
     16        6          -0.027478556    0.013515161   -0.019759940
     17        6          -0.013827722   -0.014677877   -0.082531440
     18        7          -0.006575713    0.003485114   -0.003951539
     19        6          -0.054108447    0.050532002    0.041642048
     20        6           0.021509948   -0.004333752    0.036630794
     21        6           0.034372725   -0.025174452   -0.003020631
     22        6          -0.012350380    0.001146857   -0.025608570
     23        6          -0.022185192    0.017090520    0.004839320
     24        6           0.010338635   -0.004491741    0.009433156
     25        6           0.003638438    0.001745778    0.014541118
     26        6          -0.010398671    0.009135708    0.006102505
     27        1          -0.000599734   -0.000038321   -0.001555790
     28        1          -0.009172637    0.004864134   -0.005498455
     29        6          -0.015211372    0.005592255   -0.017304986
     30        6          -0.019569701    0.012740843   -0.003617875
     31        1          -0.001268759    0.001038382    0.000433320
     32        6          -0.003638438   -0.001745778   -0.014541118
     33        6           0.010398671   -0.009135708   -0.006102505
     34        1           0.009172637   -0.004864134    0.005498455
     35        6           0.019569701   -0.012740843    0.003617875
     36        6           0.015211372   -0.005592255    0.017304986
     37        1           0.001268759   -0.001038382   -0.000433320
     38        1           0.000599734    0.000038321    0.001555790
     39        6           0.011837605   -0.004312658    0.013617511
     40        6           0.015368893   -0.010058483    0.002734237
     41        6          -0.004670690    0.006006635    0.009098661
     42        6          -0.001796321    0.004496012    0.010888030
     43        6          -0.015368893    0.010058483   -0.002734237
     44        6          -0.011837605    0.004312658   -0.013617511
     45        6           0.004670690   -0.006006635   -0.009098661
     46        6           0.001796321   -0.004496012   -0.010888030
     47        1          -0.003163381    0.001887753   -0.001164794
     48        1           0.002780683   -0.001245587    0.002437844
     49        1          -0.000914285    0.001385280    0.002507367
     50        1           0.000739577   -0.001286910   -0.002624981
     51        1           0.003163381   -0.001887753    0.001164794
     52        1          -0.002780683    0.001245587   -0.002437844
     53        1          -0.000739577    0.001286910    0.002624981
     54        1           0.000914285   -0.001385280   -0.002507367
     55        1          -0.002099912    0.001546739    0.000197953
     56        1          -0.001307957    0.000255406   -0.002247257
     57        1           0.001809260   -0.001782027   -0.001711818
     58        1          -0.000292139   -0.000676547   -0.002973605
     59        1           0.001307957   -0.000255406    0.002247257
     60        1           0.002099912   -0.001546739   -0.000197953
     61        1          -0.001809260    0.001782027    0.001711818
     62        1           0.000292139    0.000676547    0.002973605
 -------------------------------------------------------------------
 Cartesian Forces:  Max     0.082531440 RMS     0.016736752

 GradGradGradGradGradGradGradGradGradGradGradGradGradGradGradGradGradGrad
 Berny optimization.
 Internal  Forces:  Max     0.046838966 RMS     0.008448210
 Search for a local minimum.
 Step number   1 out of a maximum of  372
 All quantities printed in internal units (Hartrees-Bohrs-Radians)
 Mixed Optimization -- RFO/linear search
 Second derivative matrix not updated -- first step.
 ITU=  0
     Eigenvalues ---    0.01617   0.01623   0.01633   0.01654   0.01751
     Eigenvalues ---    0.01751   0.01784   0.01785   0.01790   0.01791
     Eigenvalues ---    0.01791   0.01791   0.01793   0.01798   0.01799
     Eigenvalues ---    0.01877   0.01878   0.01962   0.01962   0.01963
     Eigenvalues ---    0.01963   0.01981   0.01982   0.01982   0.01982
     Eigenvalues ---    0.01983   0.01983   0.01985   0.01985   0.02023
     Eigenvalues ---    0.02023   0.02047   0.02048   0.02062   0.02062
     Eigenvalues ---    0.02062   0.02064   0.02064   0.02067   0.02067
     Eigenvalues ---    0.02077   0.02082   0.02082   0.02088   0.02088
     Eigenvalues ---    0.02098   0.02106   0.02121   0.02122   0.02181
     Eigenvalues ---    0.02228   0.02234   0.02235   0.02241   0.02269
     Eigenvalues ---    0.02270   0.02270   0.02280   0.02283   0.16000
     Eigenvalues ---    0.16000   0.16000   0.16000   0.16000   0.16000
     Eigenvalues ---    0.16000   0.16000   0.16000   0.16000   0.16000
     Eigenvalues ---    0.16000   0.16000   0.16000   0.16000   0.16000
     Eigenvalues ---    0.16000   0.16000   0.16000   0.16000   0.16000
     Eigenvalues ---    0.16000   0.22000   0.22000   0.22000   0.22000
     Eigenvalues ---    0.22000   0.22605   0.22605   0.22617   0.22617
     Eigenvalues ---    0.23176   0.23343   0.23346   0.23802   0.23813
     Eigenvalues ---    0.24541   0.24542   0.24542   0.24543   0.25000
     Eigenvalues ---    0.25000   0.25000   0.25000   0.25000   0.25000
     Eigenvalues ---    0.25000   0.25000   0.25000   0.25000   0.25000
     Eigenvalues ---    0.34195   0.34227   0.35575   0.35575   0.35575
     Eigenvalues ---    0.35575   0.35727   0.35727   0.35727   0.35727
     Eigenvalues ---    0.35755   0.35755   0.35756   0.35756   0.35836
     Eigenvalues ---    0.35836   0.35836   0.35836   0.35851   0.35851
     Eigenvalues ---    0.35852   0.35852   0.36115   0.36127   0.39556
     Eigenvalues ---    0.39698   0.40244   0.40319   0.41147   0.41155
     Eigenvalues ---    0.41369   0.41377   0.41387   0.41518   0.42001
     Eigenvalues ---    0.42002   0.42023   0.42163   0.42178   0.42178
     Eigenvalues ---    0.43101   0.43117   0.43141   0.43141   0.43800
     Eigenvalues ---    0.43868   0.44279   0.44290   0.44468   0.44498
     Eigenvalues ---    0.45277   0.45382   0.45382   0.45459   0.45665
     Eigenvalues ---    0.45704   0.45709   0.45709   0.46326   0.46495
     Eigenvalues ---    0.48130   0.48141   0.51204   0.51445   0.51857
     Eigenvalues ---    0.52136   0.52163   0.52170   0.52616   0.52669
 RFO step:  Lambda=-5.63157297D-02 EMin= 1.61704284D-02
 Linear search not attempted -- first point.
 Maximum step size (   0.300) exceeded in Quadratic search.
    -- Step size scaled by   0.842
 Iteration  1 RMS(Cart)=  0.03081488 RMS(Int)=  0.00022656
 Iteration  2 RMS(Cart)=  0.00056824 RMS(Int)=  0.00003611
 Iteration  3 RMS(Cart)=  0.00000025 RMS(Int)=  0.00003611
 ClnCor:  largest displacement from symmetrization is 6.32D-09 for atom    62.
 Variable       Old X    -DE/DX   Delta X   Delta X   Delta X     New X
                                 (Linear)    (Quad)   (Total)
    R1        2.59014   0.02448   0.00000   0.03995   0.03991   2.63005
    R2        2.76660   0.00420   0.00000   0.00897   0.00896   2.77557
    R3        2.63640   0.00194   0.00000   0.00427   0.00426   2.64066
    R4        2.76662   0.00420   0.00000   0.00896   0.00895   2.77557
    R5        2.63639   0.00193   0.00000   0.00425   0.00424   2.64063
    R6        2.56208   0.00894   0.00000   0.01154   0.01156   2.57364
    R7        2.68697  -0.02083   0.00000  -0.03671  -0.03671   2.65026
    R8        2.56208   0.00899   0.00000   0.01161   0.01163   2.57371
    R9        2.68697  -0.02082   0.00000  -0.03669  -0.03669   2.65028
   R10        2.68922  -0.02389   0.00000  -0.04225  -0.04225   2.64697
   R11        2.04751   0.00000   0.00000   0.00001   0.00001   2.04752
   R12        2.56303   0.02157   0.00000   0.02744   0.02757   2.59060
   R13        2.62000   0.04684   0.00000   0.07494   0.07490   2.69490
   R14        2.56304   0.02156   0.00000   0.02742   0.02755   2.59059
   R15        1.94196  -0.01175   0.00000  -0.02029  -0.02029   1.92167
   R16        2.62002   0.04679   0.00000   0.07486   0.07482   2.69484
   R17        2.68921  -0.02386   0.00000  -0.04220  -0.04220   2.64701
   R18        2.59565   0.04205   0.00000   0.07081   0.07061   2.66626
   R19        2.64202   0.00566   0.00000   0.01110   0.01108   2.65310
   R20        2.64200   0.00561   0.00000   0.01102   0.01101   2.65301
   R21        2.68697  -0.02083   0.00000  -0.03671  -0.03671   2.65026
   R22        2.04752   0.00002   0.00000   0.00004   0.00004   2.04756
   R23        2.56208   0.00894   0.00000   0.01154   0.01156   2.57364
   R24        2.76662   0.00420   0.00000   0.00896   0.00895   2.77557
   R25        2.56208   0.00899   0.00000   0.01161   0.01163   2.57371
   R26        2.59014   0.02448   0.00000   0.03995   0.03991   2.63005
   R27        2.76660   0.00420   0.00000   0.00897   0.00896   2.77557
   R28        2.63640   0.00194   0.00000   0.00427   0.00426   2.64066
   R29        2.63639   0.00193   0.00000   0.00425   0.00424   2.64063
   R30        2.56303   0.02157   0.00000   0.02744   0.02757   2.59060
   R31        2.62000   0.04684   0.00000   0.07494   0.07490   2.69490
   R32        2.68922  -0.02389   0.00000  -0.04225  -0.04225   2.64697
[...]
                 (AG) (AG) (AU) (AU) (AU) (AG) (AG) (AG) (AU) (AG)
                 (AG) (AU) (AG) (AU) (AG) (AU) (AU) (AG) (AU) (AU)
                 (AU) (AG) (AG) (AG) (AU) (AG) (AG) (AU) (AG) (AG)
                 (AU) (AU) (AU) (AG) (AU) (AG) (AU) (AG) (AG) (AU)
                 (AG) (AU) (AU) (AU) (AG) (AU) (AU) (AG) (AU) (AG)
                 (AU) (AG) (AG) (AU) (AG) (AG) (AU) (AG) (AU) (AG)
                 (AG) (AU) (AU) (AG) (AU) (AU) (AG) (AG) (AU) (AG)
                 (AU) (AG) (AG) (AU) (AU) (AG) (AU) (AU) (AU) (AG)
                 (AU) (AG) (AG) (AG) (AU) (AU) (AG) (AG) (AU) (AU)
                 (AG) (AG) (AG) (AU) (AG) (AG) (AU) (AU) (AU) (AG)
                 (AU) (AG) (AU) (AU) (AU) (AG) (AG) (AG) (AU) (AU)
                 (AU) (AG) (AG) (AU) (AU) (AG) (AG) (AU) (AU) (AG)
                 (AG) (AG) (AG) (AG) (AU) (AU) (AU) (AG) (AU) (AU)
                 (AG) (AU) (AU) (AG) (AG) (AG) (AG) (AU) (AU) (AU)
                 (AU) (AG) (AG) (AU) (AG) (AG) (AU) (AG) (AG) (AU)
                 (AU) (AU) (AG) (AU) (AG) (AU) (AG) (AU) (AU) (AG)
                 (AU) (AG) (AG) (AG) (AU) (AG) (AU) (AG) (AU) (AG)
                 (AU) (AU) (AU) (AG) (AG) (AG) (AU) (AG) (AU) (AG)
                 (AU) (AU) (AG) (AG) (AU) (AU) (AG) (AG) (AU) (AU)
                 (AG) (AU) (AG) (AU) (AU) (AU) (AG) (AG) (AG) (AU)
                 (AG) (AU) (AU) (AG) (AG) (AG) (AU) (AG) (AU) (AU)
                 (AG) (AU) (AG) (AU) (AU) (AG) (AG) (AU) (AU) (AG)
                 (AG) (AG) (AU) (AU) (AG) (AG) (AU) (AU) (AG) (AG)
                 (AU) (AU) (AG) (AG) (AU) (AU) (AG) (AG) (AU) (AU)
                 (AG) (AG) (AU) (AG) (AU) (AG) (AU) (AG) (AU) (AG)
                 (AU) (AG) (AU) (AG) (AU) (AU) (AG) (AU) (AG) (AG)
                 (AU) (AG) (AU) (AU) (AG) (AG) (AU) (AG) (AU) (AG)
                 (AU) (AU) (AG) (AG) (AU) (AU) (AG) (AG) (AU) (AU)
                 (AG)
 The electronic state is 1-AG.
 Alpha  occ. eigenvalues --  -14.38129 -14.38129 -14.31414 -14.31414 -10.23833
 Alpha  occ. eigenvalues --  -10.23833 -10.23831 -10.23831 -10.21852 -10.21852
 Alpha  occ. eigenvalues --  -10.21852 -10.21852 -10.20254 -10.20254 -10.20215
 Alpha  occ. eigenvalues --  -10.20215 -10.20166 -10.20166 -10.20158 -10.20158
 Alpha  occ. eigenvalues --  -10.19872 -10.19872 -10.19824 -10.19824 -10.19585
 Alpha  occ. eigenvalues --  -10.19585 -10.19584 -10.19584 -10.19242 -10.19242
 Alpha  occ. eigenvalues --  -10.19242 -10.19242 -10.18972 -10.18972 -10.18922
 Alpha  occ. eigenvalues --  -10.18922 -10.18682 -10.18682 -10.18631 -10.18631
 Alpha  occ. eigenvalues --   -0.99040  -0.98921  -0.94372  -0.94166  -0.85890
 Alpha  occ. eigenvalues --   -0.85882  -0.84354  -0.84307  -0.82106  -0.80271
 Alpha  occ. eigenvalues --   -0.79055  -0.77136  -0.76940  -0.76352  -0.74842
 Alpha  occ. eigenvalues --   -0.74454  -0.74347  -0.74308  -0.73945  -0.73940
 Alpha  occ. eigenvalues --   -0.70137  -0.65923  -0.65732  -0.65139  -0.64282
 Alpha  occ. eigenvalues --   -0.61667  -0.61648  -0.60673  -0.59751  -0.58738
 Alpha  occ. eigenvalues --   -0.58642  -0.58304  -0.57239  -0.56185  -0.56052
 Alpha  occ. eigenvalues --   -0.53584  -0.51914  -0.51525  -0.50800  -0.50192
 Alpha  occ. eigenvalues --   -0.49981  -0.49115  -0.47426  -0.47376  -0.46346
 Alpha  occ. eigenvalues --   -0.45248  -0.45204  -0.44819  -0.44610  -0.44325
 Alpha  occ. eigenvalues --   -0.44189  -0.44146  -0.44065  -0.43914  -0.43535
 Alpha  occ. eigenvalues --   -0.43012  -0.41497  -0.41407  -0.41029  -0.41020
 Alpha  occ. eigenvalues --   -0.40970  -0.40288  -0.40287  -0.39892  -0.38052
 Alpha  occ. eigenvalues --   -0.37871  -0.36700  -0.36377  -0.35758  -0.35701
 Alpha  occ. eigenvalues --   -0.35642  -0.35179  -0.35080  -0.34316  -0.34156
 Alpha  occ. eigenvalues --   -0.33585  -0.33559  -0.33429  -0.33102  -0.29678
 Alpha  occ. eigenvalues --   -0.28912  -0.27147  -0.26834  -0.26820  -0.25396
 Alpha  occ. eigenvalues --   -0.25351  -0.24772  -0.24496  -0.23762  -0.23406
 Alpha  occ. eigenvalues --   -0.22995  -0.19417  -0.17253
 Alpha virt. eigenvalues --   -0.08323  -0.07768  -0.02673  -0.02261  -0.01774
 Alpha virt. eigenvalues --   -0.01100  -0.00971   0.03279   0.03446   0.03846
 Alpha virt. eigenvalues --    0.06283   0.07713   0.08343   0.08756   0.09059
 Alpha virt. eigenvalues --    0.09814   0.10153   0.10848   0.11037   0.11304
 Alpha virt. eigenvalues --    0.11980   0.12183   0.13510   0.14477   0.14926
 Alpha virt. eigenvalues --    0.15376   0.15662   0.16059   0.16211   0.16732
 Alpha virt. eigenvalues --    0.17120   0.17608   0.18009   0.18022   0.18960
 Alpha virt. eigenvalues --    0.19633   0.19658   0.19758   0.19927   0.21604
 Alpha virt. eigenvalues --    0.21727   0.22668   0.22860   0.23169   0.24007
 Alpha virt. eigenvalues --    0.25057   0.25575   0.25957   0.27059   0.27075
 Alpha virt. eigenvalues --    0.27334   0.27460   0.27907   0.28596   0.29072
 Alpha virt. eigenvalues --    0.30248   0.30528   0.31466   0.32543   0.33030
 Alpha virt. eigenvalues --    0.33168   0.33623   0.34972   0.35244   0.36322
 Alpha virt. eigenvalues --    0.37238   0.37452   0.39339   0.39776   0.40224
 Alpha virt. eigenvalues --    0.41090   0.42191   0.42273   0.43511   0.44532
 Alpha virt. eigenvalues --    0.44893   0.45724   0.47265   0.48216   0.48457
 Alpha virt. eigenvalues --    0.49896   0.50082   0.50113   0.50422   0.51288
 Alpha virt. eigenvalues --    0.51360   0.51404   0.51444   0.51683   0.51949
 Alpha virt. eigenvalues --    0.53564   0.53970   0.54162   0.54421   0.54523
 Alpha virt. eigenvalues --    0.54526   0.55375   0.55454   0.55494   0.55557
 Alpha virt. eigenvalues --    0.56522   0.56770   0.56789   0.57311   0.57679
 Alpha virt. eigenvalues --    0.57851   0.57865   0.58006   0.58193   0.58552
 Alpha virt. eigenvalues --    0.58682   0.58896   0.58898   0.59159   0.59593
 Alpha virt. eigenvalues --    0.60005   0.60464   0.60687   0.60797   0.60959
 Alpha virt. eigenvalues --    0.61133   0.61239   0.61450   0.61526   0.61589
 Alpha virt. eigenvalues --    0.61631   0.62169   0.62545   0.63176   0.63451
 Alpha virt. eigenvalues --    0.63874   0.63922   0.64179   0.64443   0.64608
 Alpha virt. eigenvalues --    0.64781   0.65120   0.65782   0.65831   0.65908
 Alpha virt. eigenvalues --    0.68842   0.68900   0.68971   0.69041   0.69403
 Alpha virt. eigenvalues --    0.71117   0.72282   0.73032   0.74322   0.74838
 Alpha virt. eigenvalues --    0.74932   0.75971   0.76140   0.78286   0.78695
 Alpha virt. eigenvalues --    0.79556   0.79647   0.79770   0.80117   0.81004
 Alpha virt. eigenvalues --    0.82149   0.82263   0.82594   0.82930   0.83301
 Alpha virt. eigenvalues --    0.83383   0.83447   0.83934   0.84158   0.84244
 Alpha virt. eigenvalues --    0.85061   0.85228   0.85946   0.86139   0.86727
 Alpha virt. eigenvalues --    0.86771   0.87704   0.87784   0.88541   0.89053
 Alpha virt. eigenvalues --    0.89071   0.89105   0.89209   0.89584   0.89788
 Alpha virt. eigenvalues --    0.89834   0.90066   0.90617   0.91581   0.92008
 Alpha virt. eigenvalues --    0.92809   0.94039   0.94123   0.94379   0.95078
 Alpha virt. eigenvalues --    0.96083   0.96588   0.96715   0.98646   1.00287
 Alpha virt. eigenvalues --    1.00437   1.00472   1.01050   1.01826   1.02908
 Alpha virt. eigenvalues --    1.03202   1.04173   1.07645   1.07957   1.09166
 Alpha virt. eigenvalues --    1.09906   1.10844   1.11326   1.11757   1.12139
 Alpha virt. eigenvalues --    1.12587   1.12863   1.15256   1.15357   1.16710
 Alpha virt. eigenvalues --    1.17010   1.17697   1.18808   1.18980   1.20423
 Alpha virt. eigenvalues --    1.20466   1.20697   1.21188   1.21803   1.21909
 Alpha virt. eigenvalues --    1.22826   1.23122   1.24453   1.24829   1.25123
 Alpha virt. eigenvalues --    1.27066   1.27863   1.27969   1.28170   1.28402
 Alpha virt. eigenvalues --    1.28782   1.28836   1.31197   1.32239   1.32250
 Alpha virt. eigenvalues --    1.32278   1.32628   1.33766   1.33983   1.36287
 Alpha virt. eigenvalues --    1.36378   1.37617   1.37839   1.38685   1.39464
 Alpha virt. eigenvalues --    1.39552   1.41010   1.41933   1.42026   1.42540
 Alpha virt. eigenvalues --    1.42716   1.42820   1.43329   1.44066   1.44110
 Alpha virt. eigenvalues --    1.45198   1.45235   1.45315   1.45579   1.45903
 Alpha virt. eigenvalues --    1.46177   1.46282   1.47110   1.47434   1.47932
 Alpha virt. eigenvalues --    1.48027   1.48345   1.48943   1.49014   1.49273
 Alpha virt. eigenvalues --    1.49921   1.49946   1.50238   1.50508   1.52561
 Alpha virt. eigenvalues --    1.56142   1.57671   1.64429   1.64879   1.65005
 Alpha virt. eigenvalues --    1.66316   1.68229   1.68804   1.71297   1.71626
 Alpha virt. eigenvalues --    1.73028   1.73420   1.74695   1.76130   1.76325
 Alpha virt. eigenvalues --    1.76342   1.76829   1.77865   1.78018   1.78192
 Alpha virt. eigenvalues --    1.79061   1.79435   1.80066   1.80393   1.80692
 Alpha virt. eigenvalues --    1.81827   1.82092   1.82225   1.82768   1.84017
 Alpha virt. eigenvalues --    1.85179   1.85995   1.86409   1.86991   1.87140
 Alpha virt. eigenvalues --    1.87789   1.88069   1.88319   1.89526   1.91028
 Alpha virt. eigenvalues --    1.91130   1.91330   1.91436   1.91676   1.92157
 Alpha virt. eigenvalues --    1.92194   1.93494   1.93523   1.98102   1.98859
 Alpha virt. eigenvalues --    1.99076   1.99234   2.01316   2.01507   2.01957
 Alpha virt. eigenvalues --    2.02293   2.02379   2.04132   2.04436   2.04987
 Alpha virt. eigenvalues --    2.05291   2.05483   2.06481   2.06704   2.07308
 Alpha virt. eigenvalues --    2.07666   2.08291   2.10268   2.10366   2.10423
 Alpha virt. eigenvalues --    2.11491   2.12374   2.12928   2.13088   2.16020
 Alpha virt. eigenvalues --    2.17498   2.18048   2.18055   2.18300   2.18976
 Alpha virt. eigenvalues --    2.19915   2.22306   2.22953   2.22995   2.23004
 Alpha virt. eigenvalues --    2.24586   2.24593   2.25354   2.25530   2.25681
 Alpha virt. eigenvalues --    2.25755   2.26303   2.26745   2.26856   2.26897
 Alpha virt. eigenvalues --    2.27198   2.27549   2.27615   2.28217   2.29552
 Alpha virt. eigenvalues --    2.31642   2.32038   2.33259   2.33306   2.33553
 Alpha virt. eigenvalues --    2.37714   2.37744   2.40066   2.40130   2.42570
 Alpha virt. eigenvalues --    2.43067   2.43620   2.44291   2.44997   2.45118
 Alpha virt. eigenvalues --    2.46350   2.50288   2.50625   2.52054   2.53969
 Alpha virt. eigenvalues --    2.54436   2.54975   2.55663   2.57417   2.57813
 Alpha virt. eigenvalues --    2.58563   2.58694   2.60301   2.61398   2.62642
 Alpha virt. eigenvalues --    2.62726   2.62892   2.63608   2.64311   2.66054
 Alpha virt. eigenvalues --    2.67481   2.67538   2.67541   2.67610   2.69346
 Alpha virt. eigenvalues --    2.69394   2.69482   2.70301   2.70354   2.70964
 Alpha virt. eigenvalues --    2.70995   2.71791   2.72187   2.72293   2.72309
 Alpha virt. eigenvalues --    2.74536   2.80107   2.80524   2.82391   2.82929
 Alpha virt. eigenvalues --    2.83350   2.84088   2.84308   2.86916   2.88631
 Alpha virt. eigenvalues --    2.88999   2.91005   2.91345   2.94348   2.94563
 Alpha virt. eigenvalues --    2.96698   3.00561   3.01543   3.02072   3.03578
 Alpha virt. eigenvalues --    3.07817   3.09902   3.14849   3.15463   3.23077
 Alpha virt. eigenvalues --    3.23186   3.23222   3.31097   3.34861   3.36094
 Alpha virt. eigenvalues --    3.40536   3.41178   3.45051   3.49640   3.50282
 Alpha virt. eigenvalues --    3.50701   4.04689   4.05278   4.06642   4.08021
 Alpha virt. eigenvalues --    4.08459   4.09294   4.09469   4.09551   4.09680
 Alpha virt. eigenvalues --    4.10123   4.11033   4.11774   4.15899   4.17423
 Alpha virt. eigenvalues --    4.17456   4.17836   4.22003   4.23098   4.23500
 Alpha virt. eigenvalues --    4.26909   4.27287   4.29709   4.29792   4.32716
 Alpha virt. eigenvalues --    4.39492   4.43107   4.44412   4.44956   4.45584
 Alpha virt. eigenvalues --    4.46372   4.47271   4.49600   4.55569   4.59493
 Alpha virt. eigenvalues --    4.65664   4.73612   4.78207   4.81710   4.82744
 Alpha virt. eigenvalues --    4.83428
          Condensed to atoms (all electrons):
 Mulliken atomic charges:
              1
     1  C    0.071517
     2  C    0.071019
     3  C    0.304612
     4  C    0.304224
     5  N   -0.692969
     6  C   -0.261342
     7  C    0.369249
     8  N   -0.802782
     9  C    0.370325
    10  C    0.048713
    11  C    0.048263
    12  C   -0.261410
    13  C    0.304612
    14  N   -0.692969
    15  C    0.071517
    16  C    0.071019
    17  C    0.369249
    18  N   -0.802782
    19  C    0.370325
    20  C    0.048263
    21  C    0.048713
    22  C   -0.261410
    23  C   -0.261342
    24  C    0.304224
    25  C   -0.199296
    26  C   -0.199344
    27  H    0.138627
    28  H    0.409346
    29  C   -0.187584
    30  C   -0.187657
    31  H    0.138596
    32  C   -0.199296
    33  C   -0.199344
    34  H    0.409346
    35  C   -0.187657
    36  C   -0.187584
    37  H    0.138596
    38  H    0.138627
    39  C   -0.135661
    40  C   -0.135644
    41  C   -0.135267
    42  C   -0.135170
    43  C   -0.135644
    44  C   -0.135661
    45  C   -0.135267
    46  C   -0.135170
    47  H    0.129230
    48  H    0.129245
    49  H    0.137964
    50  H    0.137996
    51  H    0.129230
    52  H    0.129245
    53  H    0.137996
    54  H    0.137964
    55  H    0.134275
    56  H    0.134275
    57  H    0.128335
    58  H    0.128317
    59  H    0.134275
    60  H    0.134275
    61  H    0.128335
    62  H    0.128317
 Sum of Mulliken atomic charges =   0.00000
 Mulliken charges with hydrogens summed into heavy atoms:
              1
     1  C    0.071517
     2  C    0.071019
     3  C    0.304612
     4  C    0.304224
     5  N   -0.692969
     6  C   -0.122715
     7  C    0.369249
     8  N   -0.393436
     9  C    0.370325
    10  C    0.048713
    11  C    0.048263
    12  C   -0.122814
    13  C    0.304612
    14  N   -0.692969
    15  C    0.071517
    16  C    0.071019
    17  C    0.369249
    18  N   -0.393436
    19  C    0.370325
    20  C    0.048263
    21  C    0.048713
    22  C   -0.122814
    23  C   -0.122715
    24  C    0.304224
    25  C   -0.070066
    26  C   -0.070099
    29  C   -0.049620
    30  C   -0.049661
    32  C   -0.070066
    33  C   -0.070099
    35  C   -0.049661
    36  C   -0.049620
    39  C   -0.001386
    40  C   -0.001370
    41  C   -0.006932
    42  C   -0.006853
    43  C   -0.001370
    44  C   -0.001386
    45  C   -0.006932
    46  C   -0.006853
 Sum of Mulliken charges with hydrogens summed into heavy atoms =   0.00000
 Electronic spatial extent (au):  <R**2>=          23141.6611
 Charge=              0.0000 electrons
 Dipole moment (field-independent basis, Debye):
    X=              0.0000    Y=              0.0000    Z=              0.0000  Tot=              0.0000
 Quadrupole moment (field-independent basis, Debye-Ang):
   XX=           -199.6175   YY=           -219.9211   ZZ=           -195.5768
   XY=            -23.5654   XZ=             11.5297   YZ=              4.3852
 Traceless Quadrupole moment (field-independent basis, Debye-Ang):
   XX=              5.4210   YY=            -14.8826   ZZ=              9.4617
   XY=            -23.5654   XZ=             11.5297   YZ=              4.3852
 Octapole moment (field-independent basis, Debye-Ang**2):
  XXX=              0.0000  YYY=              0.0000  ZZZ=              0.0000  XYY=              0.0000
  XXY=              0.0000  XXZ=              0.0000  XZZ=              0.0000  YZZ=              0.0000
  YYZ=              0.0000  XYZ=              0.0000
 Hexadecapole moment (field-independent basis, Debye-Ang**3):
 XXXX=         -10415.3434 YYYY=          -6179.9497 ZZZZ=         -13742.7932 XXXY=           2774.8157
 XXXZ=           -749.9120 YYYX=           3293.3684 YYYZ=          -1417.9229 ZZZX=           -674.1621
 ZZZY=          -1106.2963 XXYY=          -2377.9347 XXZZ=          -3992.6491 YYZZ=          -3422.0483
 XXYZ=           -580.9424 YYXZ=           -473.6582 ZZXY=            865.5386
 N-N= 3.962936041462D+03 E-N=-1.164410995315D+04  KE= 1.588860017950D+03
 Symmetry AG   KE= 7.929307891484D+02
 Symmetry AU   KE= 7.959292288012D+02

 Test job not archived.
 1\1\GINC-TERMINUS\FOpt\RB3LYP\6-31G(d)\C36H22N4\FRODOX\04-Jan-2018\0\\
 #B3LYP/6-31G* fopt test\\RotationSameMolecule/Tetrabenzoporphyrin_rota
 ted02.xyz\\0,1\C,-1.7335982043,2.2082888105,3.3198309368\C,-0.63364481
 84,1.6272205571,3.9801390934\C,0.0624158238,0.8340616713,2.9623622991\
 C,-1.6524555845,1.7397834633,1.9329760492\N,-0.5726546167,0.9261703012
 ,1.7600066159\C,-2.5726585208,2.095150327,0.9412232222\C,-2.5894788872
 ,1.7114998281,-0.3925583877\N,-1.6784575627,0.8864552309,-1.0071515147
 \C,-1.9559899956,0.6880111479,-2.3382181629\C,-3.5470273304,2.08499707
 55,-1.4122125966\C,-3.1543986174,1.4507775244,-2.6178606216\C,-1.22029
 15117,-0.0925174266,-3.2190879081\C,-0.0624158238,-0.8340616713,-2.962
 3622991\N,0.5726546167,-0.9261703012,-1.7600066159\C,1.7335982043,-2.2
 082888105,-3.3198309368\C,0.6336448184,-1.6272205571,-3.9801390934\C,2
 .5894788872,-1.7114998281,0.3925583877\N,1.6784575627,-0.8864552309,1.
 0071515147\C,1.9559899956,-0.6880111479,2.3382181629\C,3.1543986174,-1
 .4507775244,2.6178606216\C,3.5470273304,-2.0849970755,1.4122125966\C,1
 .2202915117,0.0925174266,3.2190879081\C,2.5726585208,-2.095150327,-0.9
 412232222\C,1.6524555845,-1.7397834633,-1.9329760492\C,-2.6219517385,3
 .0390863212,4.0071239519\C,-0.4064688167,1.8686388508,5.3373040984\H,-
 3.3794988976,2.7549230979,1.2458784403\H,-0.8852138564,0.4692284403,-0
 .5280387484\C,-4.6875220779,2.900272066,-1.3754116897\C,-3.9005641671,
 1.629128567,-3.791750802\H,-1.5985105325,-0.1266620095,-4.2364079264\C
 ,2.6219517385,-3.0390863212,-4.0071239519\C,0.4064688167,-1.8686388508
 ,-5.3373040984\H,0.8852138564,-0.4692284403,0.5280387484\C,3.900564167
 1,-1.629128567,3.791750802\C,4.6875220779,-2.900272066,1.3754116897\H,
 1.5985105325,0.1266620095,4.2364079264\H,3.3794988976,-2.7549230979,-1
 .2458784403\C,-5.418251608,3.0693722588,-2.5432645696\C,-5.0274547239,
 2.4379654125,-3.7433261846\C,2.3925146585,-3.2780439767,-5.3613469347\
 C,1.2947576058,-2.6981053358,-6.0203592549\C,5.0274547239,-2.437965412
 5,3.7433261846\C,5.418251608,-3.0693722588,2.5432645696\C,-2.392514658
 5,3.2780439767,5.3613469347\C,-1.2947576058,2.6981053358,6.0203592549\
 H,-3.4744397787,3.4932249976,3.5082095318\H,0.4389198483,1.4258671964,
 5.858160292\H,-4.9960855682,3.3904487185,-0.4561452676\H,-3.6075292678
 ,1.1473569934,-4.7204998237\H,3.4744397787,-3.4932249976,-3.5082095318
 \H,-0.4389198483,-1.4258671964,-5.858160292\H,3.6075292678,-1.14735699
 34,4.7204998237\H,4.9960855682,-3.3904487185,0.4561452676\H,-6.3051134
 874,3.6968215105,-2.5366237763\H,-5.6197448569,2.589362733,-4.64138590
 82\H,3.0700212766,-3.9208915978,-5.9168666834\H,1.1383102829,-2.900412
 4639,-7.0765307806\H,5.6197448569,-2.589362733,4.6413859082\H,6.305113
 4874,-3.6968215105,2.5366237763\H,-3.0700212766,3.9208915978,5.9168666
 834\H,-1.1383102829,2.9004124639,7.0765307806\\Version=EM64L-G09RevB.0
 1\State=1-AG\HF=-1604.1578888\RMSD=6.941e-09\RMSF=5.362e-05\Dipole=0.,
 0.,0.\Quadrupole=4.0303565,-11.0648625,7.034506,-17.5202852,8.5720412,
 3.2602537\PG=CI [X(C36H22N4)]\\@


      THE ONE-EYED VIEW OF OUR UNIVERSE SAYS YOU MUST NOT LOOK
      FAR AFIELD FOR PROBLEMS.  SUCH PROBLEMS MAY NEVER ARRIVE. 
      INSTEAD, TEND TO THE WOLF WITHIN YOUR FENCES.
      THE PACKS RANGING OUTSIDE MAY NOT EVEN EXIST.

                              -- THE AZHAR BOOK SHAMRA I:4
                                 CHILDREN OF DUNE, BY FRANK HERBERT
 Job cpu time:  0 days  0 hours 41 minutes 21.7 seconds.
 File lengths (MBytes):  RWF=    271 Int=      0 D2E=      0 Chk=     27 Scr=      1
 Normal termination of Gaussian 09 at Thu Jan  4 15:30:31 2018.
