 Entering Gaussian System, Link 0=g09
 Input=Tetrabenzoporphyrin.inp
 Output=Tetrabenzoporphyrin.log
 Initial command:
 /usr/local/g09/l1.exe /home/g09scr/Gau-31044.inp -scrdir=/home/g09scr/
 Entering Link 1 = /usr/local/g09/l1.exe PID=     31046.
  
 Copyright (c) 1988,1990,1992,1993,1995,1998,2003,2009,2010,
            Gaussian, Inc.  All Rights Reserved.
  
 This is part of the Gaussian(R) 09 program.  It is based on
 the Gaussian(R) 03 system (copyright 2003, Gaussian, Inc.),
 the Gaussian(R) 98 system (copyright 1998, Gaussian, Inc.),
 the Gaussian(R) 94 system (copyright 1995, Gaussian, Inc.),
 the Gaussian 92(TM) system (copyright 1992, Gaussian, Inc.),
 the Gaussian 90(TM) system (copyright 1990, Gaussian, Inc.),
 the Gaussian 88(TM) system (copyright 1988, Gaussian, Inc.),
 the Gaussian 86(TM) system (copyright 1986, Carnegie Mellon
 University), and the Gaussian 82(TM) system (copyright 1983,
 Carnegie Mellon University). Gaussian is a federally registered
 trademark of Gaussian, Inc.
  
 This software contains proprietary and confidential information,
 including trade secrets, belonging to Gaussian, Inc.
  
 This software is provided under written license and may be
 used, copied, transmitted, or stored only in accord with that
 written license.
  
 The following legend is applicable only to US Government
 contracts under FAR:
  
                    RESTRICTED RIGHTS LEGEND
  
 Use, reproduction and disclosure by the US Government is
 subject to restrictions as set forth in subparagraphs (a)
 and (c) of the Commercial Computer Software - Restricted
 Rights clause in FAR 52.227-19.
  
 Gaussian, Inc.
 340 Quinnipiac St., Bldg. 40, Wallingford CT 06492
  
  
 ---------------------------------------------------------------
 Warning -- This program may not be used in any manner that
 competes with the business of Gaussian, Inc. or will provide
 assistance to any competitor of Gaussian, Inc.  The licensee
 of this program is prohibited from giving any competitor of
 Gaussian, Inc. access to this program.  By using this program,
 the user acknowledges that Gaussian, Inc. is engaged in the
 business of creating and licensing software in the field of
 computational chemistry and represents and warrants to the
 licensee that it is not a competitor of Gaussian, Inc. and that
 it will not use this program in any manner prohibited above.
 ---------------------------------------------------------------
  

 Cite this work as:
 Gaussian 09, Revision B.01,
 M. J. Frisch, G. W. Trucks, H. B. Schlegel, G. E. Scuseria, 
 M. A. Robb, J. R. Cheeseman, G. Scalmani, V. Barone, B. Mennucci, 
 G. A. Petersson, H. Nakatsuji, M. Caricato, X. Li, H. P. Hratchian, 
 A. F. Izmaylov, J. Bloino, G. Zheng, J. L. Sonnenberg, M. Hada, 
 M. Ehara, K. Toyota, R. Fukuda, J. Hasegawa, M. Ishida, T. Nakajima, 
 Y. Honda, O. Kitao, H. Nakai, T. Vreven, J. A. Montgomery, Jr., 
 J. E. Peralta, F. Ogliaro, M. Bearpark, J. J. Heyd, E. Brothers, 
 K. N. Kudin, V. N. Staroverov, T. Keith, R. Kobayashi, J. Normand, 
 K. Raghavachari, A. Rendell, J. C. Burant, S. S. Iyengar, J. Tomasi, 
 M. Cossi, N. Rega, J. M. Millam, M. Klene, J. E. Knox, J. B. Cross, 
 V. Bakken, C. Adamo, J. Jaramillo, R. Gomperts, R. E. Stratmann, 
 O. Yazyev, A. J. Austin, R. Cammi, C. Pomelli, J. W. Ochterski, 
 R. L. Martin, K. Morokuma, V. G. Zakrzewski, G. A. Voth, 
 P. Salvador, J. J. Dannenberg, S. Dapprich, A. D. Daniels, 
 O. Farkas, J. B. Foresman, J. V. Ortiz, J. Cioslowski, 
 and D. J. Fox, Gaussian, Inc., Wallingford CT, 2010.
 
 ******************************************
 Gaussian 09:  EM64L-G09RevB.01 12-Aug-2010
                 4-Jan-2018 
 ******************************************
 %nproc=4
 Will use up to    4 processors via shared memory.
 %mem=60gb
 -----------------------
 #B3LYP/6-31G* fopt test
 -----------------------
 1/14=-1,18=20,19=15,26=3,38=1/1,3;
 2/9=110,12=2,14=103,17=6,18=5,40=1/2;
 3/5=1,6=6,7=1,11=2,16=1,25=1,30=1,71=1,74=-5/1,2,3;
 4//1;
 5/5=2,38=5/2;
 6/7=2,8=2,9=2,10=2,28=1/1;
 7//1,2,3,16;
 1/14=-1,18=20,19=15/3(2);
 2/9=110/2;
 99//99;
 2/9=110/2;
 3/5=1,6=6,7=1,11=2,16=1,25=1,30=1,71=1,74=-5/1,2,3;
 4/5=5,16=3/1;
 5/5=2,38=5/2;
 7//1,2,3,16;
 1/14=-1,18=20,19=15/3(-5);
 2/9=110/2;
 6/7=2,8=2,9=2,10=2,19=2,28=1/1;
 99/9=1/99;
 --------------------------------------------
 RotationSameMolecule/Tetrabenzoporphyrin.xyz
 --------------------------------------------
 Symbolic Z-matrix:
 Charge =  0 Multiplicity = 1
 C                    -4.30262   0.68532   0. 
 C                    -4.30262  -0.68532   0. 
 C                    -2.89957  -1.10343   0. 
 C                    -2.89957   1.10343   0. 
 N                    -2.11177   0.        0. 
 C                    -2.45081   2.45264   0. 
 C                    -1.09559   2.88682   0. 
 N                     0.        2.0873    0. 
 C                     1.09559   2.88682   0. 
 C                    -0.68678   4.21163   0. 
 C                     0.68678   4.21163   0. 
 C                     2.45081   2.45264   0. 
 C                     2.89957   1.10343   0. 
 N                     2.11177   0.        0. 
 C                     4.30262  -0.68532   0. 
 C                     4.30262   0.68532   0. 
 C                     1.09559  -2.88682   0. 
 N                     0.       -2.0873    0. 
 C                    -1.09559  -2.88682   0. 
 C                    -0.68678  -4.21163   0. 
 C                     0.68678  -4.21163   0. 
 C                    -2.45081  -2.45264   0. 
 C                     2.45081  -2.45264   0. 
 C                     2.89957  -1.10343   0. 
 C                    -5.4917    1.41501   0. 
 C                    -5.4917   -1.41501   0. 
 H                    -3.21793   3.21782   0. 
 H                     0.        1.05966   0. 
 C                    -1.4162    5.40436   0. 
 C                     1.4162    5.40436   0. 
 H                     3.21793   3.21782   0. 
 C                     5.4917   -1.41501   0. 
 C                     5.4917    1.41501   0. 
 H                     0.       -1.05966   0. 
 C                    -1.4162   -5.40436   0. 
 C                     1.4162   -5.40436   0. 
 H                    -3.21793  -3.21782   0. 
 H                     3.21793  -3.21782   0. 
 C                    -0.7058    6.61775   0. 
 C                     0.7058    6.61775   0. 
 C                     6.70585  -0.70591   0. 
 C                     6.70585   0.70591   0. 
 C                    -0.7058   -6.61775   0. 
 C                     0.7058   -6.61775   0. 
 C                    -6.70585   0.70591   0. 
 C                    -6.70585  -0.70591   0. 
 H                    -5.4868    2.49618   0. 
 H                    -5.4868   -2.49618   0. 
 H                    -2.49751   5.40652   0. 
 H                     2.49751   5.40652   0. 
 H                     5.4868   -2.49618   0. 
 H                     5.4868    2.49618   0. 
 H                    -2.49751  -5.40652   0. 
 H                     2.49751  -5.40652   0. 
 H                    -1.24413   7.55659   0. 
 H                     1.24413   7.55659   0. 
 H                     7.64419  -1.24462   0. 
 H                     7.64419   1.24462   0. 
 H                    -1.24413  -7.55659   0. 
 H                     1.24413  -7.55659   0. 
 H                    -7.64419   1.24462   0. 
 H                    -7.64419  -1.24462   0. 
 

 GradGradGradGradGradGradGradGradGradGradGradGradGradGradGradGradGradGrad
 Berny optimization.
 Initialization pass.
                           ----------------------------
                           !    Initial Parameters    !
                           ! (Angstroms and Degrees)  !
 --------------------------                            --------------------------
 ! Name  Definition              Value          Derivative Info.                !
 --------------------------------------------------------------------------------
 ! R1    R(1,2)                  1.3706         estimate D2E/DX2                !
 ! R2    R(1,4)                  1.464          estimate D2E/DX2                !
 ! R3    R(1,25)                 1.3951         estimate D2E/DX2                !
 ! R4    R(2,3)                  1.464          estimate D2E/DX2                !
 ! R5    R(2,26)                 1.3951         estimate D2E/DX2                !
 ! R6    R(3,5)                  1.3558         estimate D2E/DX2                !
 ! R7    R(3,22)                 1.4219         estimate D2E/DX2                !
 ! R8    R(4,5)                  1.3558         estimate D2E/DX2                !
 ! R9    R(4,6)                  1.4219         estimate D2E/DX2                !
 ! R10   R(6,7)                  1.4231         estimate D2E/DX2                !
 ! R11   R(6,27)                 1.0835         estimate D2E/DX2                !
 ! R12   R(7,8)                  1.3563         estimate D2E/DX2                !
 ! R13   R(7,10)                 1.3865         estimate D2E/DX2                !
 ! R14   R(8,9)                  1.3563         estimate D2E/DX2                !
 ! R15   R(8,28)                 1.0276         estimate D2E/DX2                !
 ! R16   R(9,11)                 1.3865         estimate D2E/DX2                !
 ! R17   R(9,12)                 1.4231         estimate D2E/DX2                !
 ! R18   R(10,11)                1.3736         estimate D2E/DX2                !
 ! R19   R(10,29)                1.3981         estimate D2E/DX2                !
 ! R20   R(11,30)                1.3981         estimate D2E/DX2                !
 ! R21   R(12,13)                1.4219         estimate D2E/DX2                !
 ! R22   R(12,31)                1.0835         estimate D2E/DX2                !
 ! R23   R(13,14)                1.3558         estimate D2E/DX2                !
 ! R24   R(13,16)                1.464          estimate D2E/DX2                !
 ! R25   R(14,24)                1.3558         estimate D2E/DX2                !
 ! R26   R(15,16)                1.3706         estimate D2E/DX2                !
 ! R27   R(15,24)                1.464          estimate D2E/DX2                !
 ! R28   R(15,32)                1.3951         estimate D2E/DX2                !
 ! R29   R(16,33)                1.3951         estimate D2E/DX2                !
 ! R30   R(17,18)                1.3563         estimate D2E/DX2                !
 ! R31   R(17,21)                1.3865         estimate D2E/DX2                !
 ! R32   R(17,23)                1.4231         estimate D2E/DX2                !
 ! R33   R(18,19)                1.3563         estimate D2E/DX2                !
 ! R34   R(18,34)                1.0276         estimate D2E/DX2                !
 ! R35   R(19,20)                1.3865         estimate D2E/DX2                !
 ! R36   R(19,22)                1.4231         estimate D2E/DX2                !
 ! R37   R(20,21)                1.3736         estimate D2E/DX2                !
 ! R38   R(20,35)                1.3981         estimate D2E/DX2                !
 ! R39   R(21,36)                1.3981         estimate D2E/DX2                !
 ! R40   R(22,37)                1.0835         estimate D2E/DX2                !
 ! R41   R(23,24)                1.4219         estimate D2E/DX2                !
 ! R42   R(23,38)                1.0835         estimate D2E/DX2                !
 ! R43   R(25,45)                1.4061         estimate D2E/DX2                !
 ! R44   R(25,47)                1.0812         estimate D2E/DX2                !
 ! R45   R(26,46)                1.4061         estimate D2E/DX2                !
 ! R46   R(26,48)                1.0812         estimate D2E/DX2                !
 ! R47   R(29,39)                1.4061         estimate D2E/DX2                !
 ! R48   R(29,49)                1.0813         estimate D2E/DX2                !
 ! R49   R(30,40)                1.4061         estimate D2E/DX2                !
 ! R50   R(30,50)                1.0813         estimate D2E/DX2                !
 ! R51   R(32,41)                1.4061         estimate D2E/DX2                !
 ! R52   R(32,51)                1.0812         estimate D2E/DX2                !
 ! R53   R(33,42)                1.4061         estimate D2E/DX2                !
 ! R54   R(33,52)                1.0812         estimate D2E/DX2                !
 ! R55   R(35,43)                1.4061         estimate D2E/DX2                !
 ! R56   R(35,53)                1.0813         estimate D2E/DX2                !
 ! R57   R(36,44)                1.4061         estimate D2E/DX2                !
 ! R58   R(36,54)                1.0813         estimate D2E/DX2                !
 ! R59   R(39,40)                1.4116         estimate D2E/DX2                !
 ! R60   R(39,55)                1.0822         estimate D2E/DX2                !
 ! R61   R(40,56)                1.0822         estimate D2E/DX2                !
 ! R62   R(41,42)                1.4118         estimate D2E/DX2                !
 ! R63   R(41,57)                1.082          estimate D2E/DX2                !
 ! R64   R(42,58)                1.082          estimate D2E/DX2                !
 ! R65   R(43,44)                1.4116         estimate D2E/DX2                !
 ! R66   R(43,59)                1.0822         estimate D2E/DX2                !
 ! R67   R(44,60)                1.0822         estimate D2E/DX2                !
 ! R68   R(45,46)                1.4118         estimate D2E/DX2                !
 ! R69   R(45,61)                1.082          estimate D2E/DX2                !
 ! R70   R(46,62)                1.082          estimate D2E/DX2                !
 ! A1    A(2,1,4)              106.5941         estimate D2E/DX2                !
 ! A2    A(2,1,25)             121.5357         estimate D2E/DX2                !
 ! A3    A(4,1,25)             131.8702         estimate D2E/DX2                !
 ! A4    A(1,2,3)              106.5941         estimate D2E/DX2                !
 ! A5    A(1,2,26)             121.5357         estimate D2E/DX2                !
 ! A6    A(3,2,26)             131.8702         estimate D2E/DX2                !
 ! A7    A(2,3,5)              108.9311         estimate D2E/DX2                !
 ! A8    A(2,3,22)             124.9917         estimate D2E/DX2                !
 ! A9    A(5,3,22)             126.0772         estimate D2E/DX2                !
 ! A10   A(1,4,5)              108.9311         estimate D2E/DX2                !
 ! A11   A(1,4,6)              124.9917         estimate D2E/DX2                !
 ! A12   A(5,4,6)              126.0772         estimate D2E/DX2                !
 ! A13   A(3,5,4)              108.9497         estimate D2E/DX2                !
 ! A14   A(4,6,7)              126.1618         estimate D2E/DX2                !
 ! A15   A(4,6,27)             116.5298         estimate D2E/DX2                !
 ! A16   A(7,6,27)             117.3083         estimate D2E/DX2                !
 ! A17   A(6,7,8)              126.1152         estimate D2E/DX2                !
 ! A18   A(6,7,10)             124.9134         estimate D2E/DX2                !
 ! A19   A(8,7,10)             108.9714         estimate D2E/DX2                !
 ! A20   A(7,8,9)              107.7589         estimate D2E/DX2                !
 ! A21   A(7,8,28)             126.1205         estimate D2E/DX2                !
 ! A22   A(9,8,28)             126.1205         estimate D2E/DX2                !
 ! A23   A(8,9,11)             108.9714         estimate D2E/DX2                !
 ! A24   A(8,9,12)             126.1152         estimate D2E/DX2                !
 ! A25   A(11,9,12)            124.9134         estimate D2E/DX2                !
 ! A26   A(7,10,11)            107.1492         estimate D2E/DX2                !
 ! A27   A(7,10,29)            131.4027         estimate D2E/DX2                !
 ! A28   A(11,10,29)           121.4481         estimate D2E/DX2                !
 ! A29   A(9,11,10)            107.1492         estimate D2E/DX2                !
 ! A30   A(9,11,30)            131.4027         estimate D2E/DX2                !
 ! A31   A(10,11,30)           121.4481         estimate D2E/DX2                !
 ! A32   A(9,12,13)            126.1618         estimate D2E/DX2                !
 ! A33   A(9,12,31)            117.3083         estimate D2E/DX2                !
 ! A34   A(13,12,31)           116.5298         estimate D2E/DX2                !
 ! A35   A(12,13,14)           126.0772         estimate D2E/DX2                !
 ! A36   A(12,13,16)           124.9917         estimate D2E/DX2                !
 ! A37   A(14,13,16)           108.9311         estimate D2E/DX2                !
 ! A38   A(13,14,24)           108.9497         estimate D2E/DX2                !
 ! A39   A(16,15,24)           106.5941         estimate D2E/DX2                !
 ! A40   A(16,15,32)           121.5357         estimate D2E/DX2                !
 ! A41   A(24,15,32)           131.8702         estimate D2E/DX2                !
 ! A42   A(13,16,15)           106.5941         estimate D2E/DX2                !
 ! A43   A(13,16,33)           131.8702         estimate D2E/DX2                !
 ! A44   A(15,16,33)           121.5357         estimate D2E/DX2                !
 ! A45   A(18,17,21)           108.9714         estimate D2E/DX2                !
 ! A46   A(18,17,23)           126.1152         estimate D2E/DX2                !
 ! A47   A(21,17,23)           124.9134         estimate D2E/DX2                !
 ! A48   A(17,18,19)           107.7589         estimate D2E/DX2                !
 ! A49   A(17,18,34)           126.1205         estimate D2E/DX2                !
 ! A50   A(19,18,34)           126.1205         estimate D2E/DX2                !
 ! A51   A(18,19,20)           108.9714         estimate D2E/DX2                !
 ! A52   A(18,19,22)           126.1152         estimate D2E/DX2                !
 ! A53   A(20,19,22)           124.9134         estimate D2E/DX2                !
 ! A54   A(19,20,21)           107.1492         estimate D2E/DX2                !
 ! A55   A(19,20,35)           131.4027         estimate D2E/DX2                !
 ! A56   A(21,20,35)           121.4481         estimate D2E/DX2                !
 ! A57   A(17,21,20)           107.1492         estimate D2E/DX2                !
 ! A58   A(17,21,36)           131.4027         estimate D2E/DX2                !
 ! A59   A(20,21,36)           121.4481         estimate D2E/DX2                !
 ! A60   A(3,22,19)            126.1618         estimate D2E/DX2                !
 ! A61   A(3,22,37)            116.5298         estimate D2E/DX2                !
 ! A62   A(19,22,37)           117.3083         estimate D2E/DX2                !
 ! A63   A(17,23,24)           126.1618         estimate D2E/DX2                !
 ! A64   A(17,23,38)           117.3083         estimate D2E/DX2                !
 ! A65   A(24,23,38)           116.5298         estimate D2E/DX2                !
 ! A66   A(14,24,15)           108.9311         estimate D2E/DX2                !
 ! A67   A(14,24,23)           126.0772         estimate D2E/DX2                !
 ! A68   A(15,24,23)           124.9917         estimate D2E/DX2                !
 ! A69   A(1,25,45)            118.178          estimate D2E/DX2                !
 ! A70   A(1,25,47)            121.2761         estimate D2E/DX2                !
 ! A71   A(45,25,47)           120.5459         estimate D2E/DX2                !
 ! A72   A(2,26,46)            118.178          estimate D2E/DX2                !
 ! A73   A(2,26,48)            121.2761         estimate D2E/DX2                !
 ! A74   A(46,26,48)           120.5459         estimate D2E/DX2                !
 ! A75   A(10,29,39)           118.2043         estimate D2E/DX2                !
 ! A76   A(10,29,49)           121.5625         estimate D2E/DX2                !
 ! A77   A(39,29,49)           120.2331         estimate D2E/DX2                !
 ! A78   A(11,30,40)           118.2043         estimate D2E/DX2                !
 ! A79   A(11,30,50)           121.5625         estimate D2E/DX2                !
 ! A80   A(40,30,50)           120.2331         estimate D2E/DX2                !
 ! A81   A(15,32,41)           118.178          estimate D2E/DX2                !
 ! A82   A(15,32,51)           121.2761         estimate D2E/DX2                !
 ! A83   A(41,32,51)           120.5459         estimate D2E/DX2                !
 ! A84   A(16,33,42)           118.178          estimate D2E/DX2                !
 ! A85   A(16,33,52)           121.2761         estimate D2E/DX2                !
 ! A86   A(42,33,52)           120.5459         estimate D2E/DX2                !
 ! A87   A(20,35,43)           118.2043         estimate D2E/DX2                !
 ! A88   A(20,35,53)           121.5625         estimate D2E/DX2                !
 ! A89   A(43,35,53)           120.2331         estimate D2E/DX2                !
 ! A90   A(21,36,44)           118.2043         estimate D2E/DX2                !
 ! A91   A(21,36,54)           121.5625         estimate D2E/DX2                !
 ! A92   A(44,36,54)           120.2331         estimate D2E/DX2                !
 ! A93   A(29,39,40)           120.3476         estimate D2E/DX2                !
 ! A94   A(29,39,55)           119.8225         estimate D2E/DX2                !
 ! A95   A(40,39,55)           119.8299         estimate D2E/DX2                !
 ! A96   A(30,40,39)           120.3476         estimate D2E/DX2                !
 ! A97   A(30,40,56)           119.8225         estimate D2E/DX2                !
 ! A98   A(39,40,56)           119.8299         estimate D2E/DX2                !
 ! A99   A(32,41,42)           120.2862         estimate D2E/DX2                !
 ! A100  A(32,41,57)           119.8532         estimate D2E/DX2                !
 ! A101  A(42,41,57)           119.8605         estimate D2E/DX2                !
 ! A102  A(33,42,41)           120.2862         estimate D2E/DX2                !
 ! A103  A(33,42,58)           119.8532         estimate D2E/DX2                !
 ! A104  A(41,42,58)           119.8605         estimate D2E/DX2                !
 ! A105  A(35,43,44)           120.3476         estimate D2E/DX2                !
 ! A106  A(35,43,59)           119.8225         estimate D2E/DX2                !
 ! A107  A(44,43,59)           119.8299         estimate D2E/DX2                !
 ! A108  A(36,44,43)           120.3476         estimate D2E/DX2                !
 ! A109  A(36,44,60)           119.8225         estimate D2E/DX2                !
 ! A110  A(43,44,60)           119.8299         estimate D2E/DX2                !
 ! A111  A(25,45,46)           120.2862         estimate D2E/DX2                !
 ! A112  A(25,45,61)           119.8532         estimate D2E/DX2                !
 ! A113  A(46,45,61)           119.8605         estimate D2E/DX2                !
 ! A114  A(26,46,45)           120.2862         estimate D2E/DX2                !
 ! A115  A(26,46,62)           119.8532         estimate D2E/DX2                !
 ! A116  A(45,46,62)           119.8605         estimate D2E/DX2                !
 ! D1    D(4,1,2,3)              0.0            estimate D2E/DX2                !
 ! D2    D(4,1,2,26)           180.0            estimate D2E/DX2                !
 ! D3    D(25,1,2,3)           180.0            estimate D2E/DX2                !
 ! D4    D(25,1,2,26)            0.0            estimate D2E/DX2                !
 ! D5    D(2,1,4,5)              0.0            estimate D2E/DX2                !
 ! D6    D(2,1,4,6)            180.0            estimate D2E/DX2                !
 ! D7    D(25,1,4,5)           180.0            estimate D2E/DX2                !
 ! D8    D(25,1,4,6)             0.0            estimate D2E/DX2                !
 ! D9    D(2,1,25,45)            0.0            estimate D2E/DX2                !
 ! D10   D(2,1,25,47)          180.0            estimate D2E/DX2                !
 ! D11   D(4,1,25,45)          180.0            estimate D2E/DX2                !
 ! D12   D(4,1,25,47)            0.0            estimate D2E/DX2                !
 ! D13   D(1,2,3,5)              0.0            estimate D2E/DX2                !
 ! D14   D(1,2,3,22)           180.0            estimate D2E/DX2                !
 ! D15   D(26,2,3,5)           180.0            estimate D2E/DX2                !
 ! D16   D(26,2,3,22)            0.0            estimate D2E/DX2                !
 ! D17   D(1,2,26,46)            0.0            estimate D2E/DX2                !
 ! D18   D(1,2,26,48)          180.0            estimate D2E/DX2                !
 ! D19   D(3,2,26,46)          180.0            estimate D2E/DX2                !
 ! D20   D(3,2,26,48)            0.0            estimate D2E/DX2                !
 ! D21   D(2,3,5,4)              0.0            estimate D2E/DX2                !
 ! D22   D(22,3,5,4)           180.0            estimate D2E/DX2                !
 ! D23   D(2,3,22,19)          180.0            estimate D2E/DX2                !
 ! D24   D(2,3,22,37)            0.0            estimate D2E/DX2                !
 ! D25   D(5,3,22,19)            0.0            estimate D2E/DX2                !
 ! D26   D(5,3,22,37)          180.0            estimate D2E/DX2                !
 ! D27   D(1,4,5,3)              0.0            estimate D2E/DX2                !
 ! D28   D(6,4,5,3)            180.0            estimate D2E/DX2                !
 ! D29   D(1,4,6,7)            180.0            estimate D2E/DX2                !
 ! D30   D(1,4,6,27)             0.0            estimate D2E/DX2                !
 ! D31   D(5,4,6,7)              0.0            estimate D2E/DX2                !
 ! D32   D(5,4,6,27)           180.0            estimate D2E/DX2                !
 ! D33   D(4,6,7,8)              0.0            estimate D2E/DX2                !
 ! D34   D(4,6,7,10)           180.0            estimate D2E/DX2                !
 ! D35   D(27,6,7,8)           180.0            estimate D2E/DX2                !
 ! D36   D(27,6,7,10)            0.0            estimate D2E/DX2                !
 ! D37   D(6,7,8,9)            180.0            estimate D2E/DX2                !
 ! D38   D(6,7,8,28)             0.0            estimate D2E/DX2                !
 ! D39   D(10,7,8,9)             0.0            estimate D2E/DX2                !
 ! D40   D(10,7,8,28)          180.0            estimate D2E/DX2                !
 ! D41   D(6,7,10,11)          180.0            estimate D2E/DX2                !
 ! D42   D(6,7,10,29)            0.0            estimate D2E/DX2                !
 ! D43   D(8,7,10,11)            0.0            estimate D2E/DX2                !
 ! D44   D(8,7,10,29)          180.0            estimate D2E/DX2                !
 ! D45   D(7,8,9,11)             0.0            estimate D2E/DX2                !
 ! D46   D(7,8,9,12)           180.0            estimate D2E/DX2                !
 ! D47   D(28,8,9,11)          180.0            estimate D2E/DX2                !
 ! D48   D(28,8,9,12)            0.0            estimate D2E/DX2                !
 ! D49   D(8,9,11,10)            0.0            estimate D2E/DX2                !
 ! D50   D(8,9,11,30)          180.0            estimate D2E/DX2                !
 ! D51   D(12,9,11,10)         180.0            estimate D2E/DX2                !
 ! D52   D(12,9,11,30)           0.0            estimate D2E/DX2                !
 ! D53   D(8,9,12,13)            0.0            estimate D2E/DX2                !
 ! D54   D(8,9,12,31)          180.0            estimate D2E/DX2                !
 ! D55   D(11,9,12,13)         180.0            estimate D2E/DX2                !
 ! D56   D(11,9,12,31)           0.0            estimate D2E/DX2                !
 ! D57   D(7,10,11,9)            0.0            estimate D2E/DX2                !
 ! D58   D(7,10,11,30)         180.0            estimate D2E/DX2                !
 ! D59   D(29,10,11,9)         180.0            estimate D2E/DX2                !
 ! D60   D(29,10,11,30)          0.0            estimate D2E/DX2                !
 ! D61   D(7,10,29,39)         180.0            estimate D2E/DX2                !
 ! D62   D(7,10,29,49)           0.0            estimate D2E/DX2                !
 ! D63   D(11,10,29,39)          0.0            estimate D2E/DX2                !
 ! D64   D(11,10,29,49)        180.0            estimate D2E/DX2                !
 ! D65   D(9,11,30,40)         180.0            estimate D2E/DX2                !
 ! D66   D(9,11,30,50)           0.0            estimate D2E/DX2                !
 ! D67   D(10,11,30,40)          0.0            estimate D2E/DX2                !
 ! D68   D(10,11,30,50)        180.0            estimate D2E/DX2                !
 ! D69   D(9,12,13,14)           0.0            estimate D2E/DX2                !
 ! D70   D(9,12,13,16)         180.0            estimate D2E/DX2                !
 ! D71   D(31,12,13,14)        180.0            estimate D2E/DX2                !
 ! D72   D(31,12,13,16)          0.0            estimate D2E/DX2                !
 ! D73   D(12,13,14,24)        180.0            estimate D2E/DX2                !
 ! D74   D(16,13,14,24)          0.0            estimate D2E/DX2                !
 ! D75   D(12,13,16,15)        180.0            estimate D2E/DX2                !
 ! D76   D(12,13,16,33)          0.0            estimate D2E/DX2                !
 ! D77   D(14,13,16,15)          0.0            estimate D2E/DX2                !
 ! D78   D(14,13,16,33)        180.0            estimate D2E/DX2                !
 ! D79   D(13,14,24,15)          0.0            estimate D2E/DX2                !
 ! D80   D(13,14,24,23)        180.0            estimate D2E/DX2                !
 ! D81   D(24,15,16,13)          0.0            estimate D2E/DX2                !
 ! D82   D(24,15,16,33)        180.0            estimate D2E/DX2                !
 ! D83   D(32,15,16,13)        180.0            estimate D2E/DX2                !
 ! D84   D(32,15,16,33)          0.0            estimate D2E/DX2                !
 ! D85   D(16,15,24,14)          0.0            estimate D2E/DX2                !
 ! D86   D(16,15,24,23)        180.0            estimate D2E/DX2                !
 ! D87   D(32,15,24,14)        180.0            estimate D2E/DX2                !
 ! D88   D(32,15,24,23)          0.0            estimate D2E/DX2                !
 ! D89   D(16,15,32,41)          0.0            estimate D2E/DX2                !
 ! D90   D(16,15,32,51)        180.0            estimate D2E/DX2                !
 ! D91   D(24,15,32,41)        180.0            estimate D2E/DX2                !
 ! D92   D(24,15,32,51)          0.0            estimate D2E/DX2                !
 ! D93   D(13,16,33,42)        180.0            estimate D2E/DX2                !
 ! D94   D(13,16,33,52)          0.0            estimate D2E/DX2                !
 ! D95   D(15,16,33,42)          0.0            estimate D2E/DX2                !
 ! D96   D(15,16,33,52)        180.0            estimate D2E/DX2                !
 ! D97   D(21,17,18,19)          0.0            estimate D2E/DX2                !
 ! D98   D(21,17,18,34)        180.0            estimate D2E/DX2                !
 ! D99   D(23,17,18,19)        180.0            estimate D2E/DX2                !
 ! D100  D(23,17,18,34)          0.0            estimate D2E/DX2                !
 ! D101  D(18,17,21,20)          0.0            estimate D2E/DX2                !
 ! D102  D(18,17,21,36)        180.0            estimate D2E/DX2                !
 ! D103  D(23,17,21,20)        180.0            estimate D2E/DX2                !
 ! D104  D(23,17,21,36)          0.0            estimate D2E/DX2                !
 ! D105  D(18,17,23,24)          0.0            estimate D2E/DX2                !
 ! D106  D(18,17,23,38)        180.0            estimate D2E/DX2                !
 ! D107  D(21,17,23,24)        180.0            estimate D2E/DX2                !
 ! D108  D(21,17,23,38)          0.0            estimate D2E/DX2                !
 ! D109  D(17,18,19,20)          0.0            estimate D2E/DX2                !
 ! D110  D(17,18,19,22)        180.0            estimate D2E/DX2                !
 ! D111  D(34,18,19,20)        180.0            estimate D2E/DX2                !
 ! D112  D(34,18,19,22)          0.0            estimate D2E/DX2                !
 ! D113  D(18,19,20,21)          0.0            estimate D2E/DX2                !
 ! D114  D(18,19,20,35)        180.0            estimate D2E/DX2                !
 ! D115  D(22,19,20,21)        180.0            estimate D2E/DX2                !
 ! D116  D(22,19,20,35)          0.0            estimate D2E/DX2                !
 ! D117  D(18,19,22,3)           0.0            estimate D2E/DX2                !
 ! D118  D(18,19,22,37)        180.0            estimate D2E/DX2                !
 ! D119  D(20,19,22,3)         180.0            estimate D2E/DX2                !
 ! D120  D(20,19,22,37)          0.0            estimate D2E/DX2                !
 ! D121  D(19,20,21,17)          0.0            estimate D2E/DX2                !
 ! D122  D(19,20,21,36)        180.0            estimate D2E/DX2                !
 ! D123  D(35,20,21,17)        180.0            estimate D2E/DX2                !
 ! D124  D(35,20,21,36)          0.0            estimate D2E/DX2                !
 ! D125  D(19,20,35,43)        180.0            estimate D2E/DX2                !
 ! D126  D(19,20,35,53)          0.0            estimate D2E/DX2                !
 ! D127  D(21,20,35,43)          0.0            estimate D2E/DX2                !
 ! D128  D(21,20,35,53)        180.0            estimate D2E/DX2                !
 ! D129  D(17,21,36,44)        180.0            estimate D2E/DX2                !
 ! D130  D(17,21,36,54)          0.0            estimate D2E/DX2                !
 ! D131  D(20,21,36,44)          0.0            estimate D2E/DX2                !
 ! D132  D(20,21,36,54)        180.0            estimate D2E/DX2                !
 ! D133  D(17,23,24,14)          0.0            estimate D2E/DX2                !
 ! D134  D(17,23,24,15)        180.0            estimate D2E/DX2                !
 ! D135  D(38,23,24,14)        180.0            estimate D2E/DX2                !
 ! D136  D(38,23,24,15)          0.0            estimate D2E/DX2                !
 ! D137  D(1,25,45,46)           0.0            estimate D2E/DX2                !
 ! D138  D(1,25,45,61)         180.0            estimate D2E/DX2                !
 ! D139  D(47,25,45,46)        180.0            estimate D2E/DX2                !
 ! D140  D(47,25,45,61)          0.0            estimate D2E/DX2                !
 ! D141  D(2,26,46,45)           0.0            estimate D2E/DX2                !
 ! D142  D(2,26,46,62)         180.0            estimate D2E/DX2                !
 ! D143  D(48,26,46,45)        180.0            estimate D2E/DX2                !
 ! D144  D(48,26,46,62)          0.0            estimate D2E/DX2                !
 ! D145  D(10,29,39,40)          0.0            estimate D2E/DX2                !
 ! D146  D(10,29,39,55)        180.0            estimate D2E/DX2                !
 ! D147  D(49,29,39,40)        180.0            estimate D2E/DX2                !
 ! D148  D(49,29,39,55)          0.0            estimate D2E/DX2                !
 ! D149  D(11,30,40,39)          0.0            estimate D2E/DX2                !
 ! D150  D(11,30,40,56)        180.0            estimate D2E/DX2                !
 ! D151  D(50,30,40,39)        180.0            estimate D2E/DX2                !
 ! D152  D(50,30,40,56)          0.0            estimate D2E/DX2                !
 ! D153  D(15,32,41,42)          0.0            estimate D2E/DX2                !
 ! D154  D(15,32,41,57)        180.0            estimate D2E/DX2                !
 ! D155  D(51,32,41,42)        180.0            estimate D2E/DX2                !
 ! D156  D(51,32,41,57)          0.0            estimate D2E/DX2                !
 ! D157  D(16,33,42,41)          0.0            estimate D2E/DX2                !
 ! D158  D(16,33,42,58)        180.0            estimate D2E/DX2                !
 ! D159  D(52,33,42,41)        180.0            estimate D2E/DX2                !
 ! D160  D(52,33,42,58)          0.0            estimate D2E/DX2                !
 ! D161  D(20,35,43,44)          0.0            estimate D2E/DX2                !
 ! D162  D(20,35,43,59)        180.0            estimate D2E/DX2                !
 ! D163  D(53,35,43,44)        180.0            estimate D2E/DX2                !
 ! D164  D(53,35,43,59)          0.0            estimate D2E/DX2                !
 ! D165  D(21,36,44,43)          0.0            estimate D2E/DX2                !
 ! D166  D(21,36,44,60)        180.0            estimate D2E/DX2                !
 ! D167  D(54,36,44,43)        180.0            estimate D2E/DX2                !
 ! D168  D(54,36,44,60)          0.0            estimate D2E/DX2                !
 ! D169  D(29,39,40,30)          0.0            estimate D2E/DX2                !
 ! D170  D(29,39,40,56)        180.0            estimate D2E/DX2                !
 ! D171  D(55,39,40,30)        180.0            estimate D2E/DX2                !
 ! D172  D(55,39,40,56)          0.0            estimate D2E/DX2                !
 ! D173  D(32,41,42,33)          0.0            estimate D2E/DX2                !
 ! D174  D(32,41,42,58)        180.0            estimate D2E/DX2                !
 ! D175  D(57,41,42,33)        180.0            estimate D2E/DX2                !
 ! D176  D(57,41,42,58)          0.0            estimate D2E/DX2                !
 ! D177  D(35,43,44,36)          0.0            estimate D2E/DX2                !
 ! D178  D(35,43,44,60)        180.0            estimate D2E/DX2                !
 ! D179  D(59,43,44,36)        180.0            estimate D2E/DX2                !
 ! D180  D(59,43,44,60)          0.0            estimate D2E/DX2                !
 ! D181  D(25,45,46,26)          0.0            estimate D2E/DX2                !
 ! D182  D(25,45,46,62)        180.0            estimate D2E/DX2                !
 ! D183  D(61,45,46,26)        180.0            estimate D2E/DX2                !
 ! D184  D(61,45,46,62)          0.0            estimate D2E/DX2                !
 --------------------------------------------------------------------------------
 Trust Radius=3.00D-01 FncErr=1.00D-07 GrdErr=1.00D-06
 Number of steps in this run=    372 maximum allowed number of steps=    372.
 GradGradGradGradGradGradGradGradGradGradGradGradGradGradGradGradGradGrad

 Stoichiometry    C36H22N4
 Framework group  D2H[C2'(N.N),C2"(NH.HN),SG(C36H20)]
 Deg. of freedom    31
 Full point group                 D2H     NOp   8
 Largest Abelian subgroup         D2H     NOp   8
 Largest concise Abelian subgroup D2      NOp   4
                         Standard orientation:                         
 ---------------------------------------------------------------------
 Center     Atomic      Atomic             Coordinates (Angstroms)
 Number     Number       Type             X           Y           Z
 ---------------------------------------------------------------------
      1          6           0        0.000000    4.302620    0.685320
      2          6           0        0.000000    4.302620   -0.685320
      3          6           0        0.000000    2.899570   -1.103430
      4          6           0        0.000000    2.899570    1.103430
      5          7           0        0.000000    2.111770    0.000000
      6          6           0        0.000000    2.450810    2.452640
      7          6           0        0.000000    1.095590    2.886820
      8          7           0        0.000000    0.000000    2.087300
      9          6           0        0.000000   -1.095590    2.886820
     10          6           0        0.000000    0.686780    4.211630
     11          6           0        0.000000   -0.686780    4.211630
     12          6           0        0.000000   -2.450810    2.452640
     13          6           0        0.000000   -2.899570    1.103430
     14          7           0        0.000000   -2.111770    0.000000
     15          6           0        0.000000   -4.302620   -0.685320
     16          6           0        0.000000   -4.302620    0.685320
     17          6           0        0.000000   -1.095590   -2.886820
     18          7           0        0.000000    0.000000   -2.087300
     19          6           0        0.000000    1.095590   -2.886820
     20          6           0        0.000000    0.686780   -4.211630
     21          6           0        0.000000   -0.686780   -4.211630
     22          6           0        0.000000    2.450810   -2.452640
     23          6           0        0.000000   -2.450810   -2.452640
     24          6           0        0.000000   -2.899570   -1.103430
     25          6           0        0.000000    5.491700    1.415010
     26          6           0        0.000000    5.491700   -1.415010
     27          1           0        0.000000    3.217930    3.217820
     28          1           0        0.000000    0.000000    1.059660
     29          6           0        0.000000    1.416200    5.404360
     30          6           0        0.000000   -1.416200    5.404360
     31          1           0        0.000000   -3.217930    3.217820
     32          6           0        0.000000   -5.491700   -1.415010
     33          6           0        0.000000   -5.491700    1.415010
     34          1           0        0.000000    0.000000   -1.059660
     35          6           0        0.000000    1.416200   -5.404360
     36          6           0        0.000000   -1.416200   -5.404360
     37          1           0        0.000000    3.217930   -3.217820
     38          1           0        0.000000   -3.217930   -3.217820
     39          6           0        0.000000    0.705800    6.617750
     40          6           0        0.000000   -0.705800    6.617750
     41          6           0        0.000000   -6.705850   -0.705910
     42          6           0        0.000000   -6.705850    0.705910
     43          6           0        0.000000    0.705800   -6.617750
     44          6           0        0.000000   -0.705800   -6.617750
     45          6           0        0.000000    6.705850    0.705910
     46          6           0        0.000000    6.705850   -0.705910
     47          1           0        0.000000    5.486800    2.496180
     48          1           0        0.000000    5.486800   -2.496180
     49          1           0        0.000000    2.497510    5.406520
     50          1           0        0.000000   -2.497510    5.406520
     51          1           0        0.000000   -5.486800   -2.496180
     52          1           0        0.000000   -5.486800    2.496180
     53          1           0        0.000000    2.497510   -5.406520
     54          1           0        0.000000   -2.497510   -5.406520
     55          1           0        0.000000    1.244130    7.556590
     56          1           0        0.000000   -1.244130    7.556590
     57          1           0        0.000000   -7.644190   -1.244620
     58          1           0        0.000000   -7.644190    1.244620
     59          1           0        0.000000    1.244130   -7.556590
     60          1           0        0.000000   -1.244130   -7.556590
     61          1           0        0.000000    7.644190    1.244620
     62          1           0        0.000000    7.644190   -1.244620
 ---------------------------------------------------------------------
 Rotational constants (GHZ):      0.0872744      0.0850525      0.0430746
 Standard basis: 6-31G(d) (6D, 7F)
 There are   127 symmetry adapted basis functions of AG  symmetry.
 There are    40 symmetry adapted basis functions of B1G symmetry.
 There are    40 symmetry adapted basis functions of B2G symmetry.
 There are   115 symmetry adapted basis functions of B3G symmetry.
 There are    38 symmetry adapted basis functions of AU  symmetry.
 There are   122 symmetry adapted basis functions of B1U symmetry.
 There are   120 symmetry adapted basis functions of B2U symmetry.
 There are    42 symmetry adapted basis functions of B3U symmetry.
 Integral buffers will be    131072 words long.
 Raffenetti 2 integral format.
 Two-electron integral symmetry is turned on.
   644 basis functions,  1208 primitive gaussians,   644 cartesian basis functions
   133 alpha electrons      133 beta electrons
       nuclear repulsion energy      3982.0445803384 Hartrees.
 NAtoms=   62 NActive=   62 NUniq=   17 SFac= 4.00D+00 NAtFMM=   50 NAOKFM=T Big=F
 One-electron integrals computed using PRISM.
 NBasis=   644 RedAO= T  NBF=   127    40    40   115    38   122   120    42
 NBsUse=   644 1.00D-06 NBFU=   127    40    40   115    38   122   120    42
 Harris functional with IExCor=  402 diagonalized for initial guess.
 ExpMin= 1.61D-01 ExpMax= 4.17D+03 ExpMxC= 6.27D+02 IAcc=1 IRadAn=         1 AccDes= 0.00D+00
 HarFok:  IExCor=  402 AccDes= 0.00D+00 IRadAn=         1 IDoV= 1
 ScaDFX=  1.000000  1.000000  1.000000  1.000000
 FoFCou: FMM=F IPFlag=           0 FMFlag=      100000 FMFlg1=        2000
         NFxFlg=           0 DoJE=T BraDBF=F KetDBF=T FulRan=T
         Omega=  0.000000  0.000000  1.000000  0.000000  0.000000 ICntrl=     500 IOpCl=  0
         NMat0=    1 NMatS0=    1 NMatT0=    0 NMatD0=    1 NMtDS0=    0 NMtDT0=    0
         I1Cent=           4 NGrid=           0.
 Petite list used in FoFCou.
 Initial guess orbital symmetries:
       Occupied  (B1U) (AG) (AG) (B2U) (B1U) (AG) (B3G) (B2U) (B2U)
                 (AG) (B3G) (B1U) (B1U) (AG) (B3G) (B2U) (B2U)
                 (AG) (B1U) (AG) (B3G) (B1U) (B3G) (B2U) (AG) (B2U)
                 (B3G) (B1U) (B1U) (B3G) (B2U) (AG) (B1U) (AG)
                 (B3G) (B2U) (AG) (B1U) (B3G) (B2U) (AG) (B1U)
                 (B2U) (AG) (AG) (B1U) (B2U) (AG) (B3G) (B2U) (B1U)
                 (AG) (B1U) (B3G) (B2U) (AG) (B3G) (B1U) (B2U)
                 (AG) (B3G) (B2U) (B1U) (AG) (B1U) (B2U) (AG) (B3G)
                 (B2U) (AG) (B1U) (B3G) (B3G) (AG) (B1U) (B2U)
                 (AG) (B1U) (B2U) (AG) (B3G) (B1U) (B2U) (AG) (B3G)
                 (B1U) (B2U) (AG) (B1U) (B3G) (AG) (B2U) (B3G)
                 (B1U) (AG) (B2U) (B3G) (AG) (B3U) (B1U) (B2G)
                 (B2U) (B1G) (B3U) (B1U) (B3G) (B2U) (B3G) (B1U)
                 (B3G) (AG) (B2U) (B1U) (AG) (B3U) (B2G) (B1G)
                 (B3U) (AU) (B1G) (B2G) (AU) (B2U) (AG) (B3U) (B2G)
                 (B1G) (AU) (B3U) (B2G) (B1G) (B3U) (AU)
       Virtual   (B1G) (B2G) (B3U) (AU) (B2G) (B3U) (B1G) (AU)
                 (B2G) (B1G) (AU) (B3U) (B2G) (B1G) (AG) (AG) (B1U)
                 (B2U) (B3U) (AG) (B2U) (B3G) (AG) (B1U) (AU) (B2G)
                 (B1G) (AU) (B2U) (B1U) (B3G) (B3G) (B1U) (AG)
                 (B2U) (AG) (B2U) (B3G) (B1U) (AG) (B2U) (B3G)
                 (B1U) (B3G) (B1U) (AG) (B3G) (B2U) (B1U) (B2U)
                 (AG) (B3G) (B3G) (B1U) (B2U) (AG) (B1U) (AG) (B2U)
                 (AG) (B3G) (B1U) (B2U) (B1U) (AG) (B3G) (AG) (B2U)
                 (B2U) (B3G) (B1U) (B3G) (B1U) (B2U) (B1U) (AG)
                 (AG) (B3G) (B2U) (B3G) (AG) (B1U) (B2U) (B3G)
                 (B1U) (B3U) (B2G) (AG) (B1G) (B3G) (B3U) (B1U)
                 (B2U) (B2U) (AU) (B3G) (AG) (B1U) (B3G) (B1G)
                 (B3U) (B2G) (AG) (B1U) (B2U) (B1U) (B3G) (B2U)
                 (AG) (AG) (B3G) (B2U) (B1U) (B3U) (B1G) (B2G)
                 (B1U) (AU) (B2U) (B3G) (AG) (B1U) (B2U) (AG) (AG)
                 (B3G) (B1U) (AU) (B3G) (B2G) (B1G) (B1U) (B2U)
                 (B3U) (AG) (B2U) (AG) (B2G) (B1G) (B3U) (B3U)
                 (AU) (B2G) (B1G) (AU) (B3U) (B2G) (B1G) (B3U)
                 (AU) (AU) (B3G) (B2U) (B1G) (B2G) (B1U) (AG) (B2U)
                 (B3G) (B3U) (AG) (B1U) (B2U) (B3G) (AU) (B2G)
                 (B1G) (B1U) (B2U) (B3G) (AG) (B3G) (B2G) (B2U)
                 (B1U) (AG) (B1U) (B1U) (B2U) (B3G) (B1G) (AG)
                 (AU) (B3U) (AG) (B2U) (B3G) (B3G) (B1U) (AG) (AG)
                 (B2U) (B1U) (B2U) (AG) (B1U) (B3G) (B2U) (B3G)
                 (B3G) (B1U) (AG) (B2U) (AG) (B3G) (B2U) (B1U)
                 (B1U) (AG) (B2U) (B3G) (B3G) (AG) (B3G) (B1U)
                 (B2U) (B1U) (AG) (B1U) (B2U) (AG) (B3U) (B2U)
                 (B3G) (B2G) (B3G) (B1G) (AG) (B3U) (B1U) (B1U)
                 (B2U) (AG) (B2U) (B1U) (B3U) (B2G) (B1G) (B3G)
                 (AG) (AU) (B3G) (B3U) (B1G) (AU) (B2G) (AU) (AG)
                 (B2U) (B2G) (B1G) (B2U) (B1U) (B3U) (B3G) (AG)
                 (B1U) (B2G) (B1G) (B3U) (B3U) (B3U) (B2G) (B3G)
                 (B1G) (AG) (B2U) (B1U) (B3G) (B3U) (B2U) (AU)
                 (B2G) (B1G) (AU) (AU) (AG) (B2G) (B1G) (B3U) (B1U)
                 (B1U) (B2U) (B3G) (B3G) (AG) (B1U) (B2U) (AG)
                 (AG) (B3G) (B2U) (B1U) (AG) (B2U) (B1U) (AG) (B3G)
                 (AG) (B2U) (B1U) (AU) (B2G) (AG) (B1G) (B1U) (B2U)
                 (AG) (B3G) (AU) (B1U) (B3G) (AG) (B2U) (B3U) (AG)
                 (B1U) (B2U) (B1U) (AG) (B1G) (B3G) (B2G) (B2U)
                 (AG) (B1U) (B2U) (AG) (B3U) (B1U) (B2U) (B3G)
                 (B3G) (B3G) (B1U) (B2U) (AG) (AG) (B1U) (B2U)
                 (B3U) (B3G) (AG) (B2G) (B1U) (AU) (B1G) (B2U)
                 (B3U) (B3G) (B3G) (B1G) (B2G) (AG) (B1U) (AU)
                 (B2U) (AG) (B1U) (B2U) (B3G) (AU) (B1U) (B1G)
                 (B2G) (AG) (B3G) (AU) (B3U) (B1G) (B2G) (B3U)
                 (B1U) (B2U) (B1G) (AU) (B3G) (B2G) (AU) (B2U)
                 (AG) (B3G) (B1U) (B3U) (B1G) (B3U) (B2G) (B1U)
                 (AG) (B2U) (AU) (B1G) (B2G) (B3G) (B1U) (AG) (B2U)
                 (B3G) (B3G) (B2U) (B3U) (AU) (B1U) (AG) (B2G)
                 (AG) (B3G) (B2U) (AG) (B1G) (B1U) (AU) (B2U) (B1U)
                 (AU) (B2G) (B1G) (B3G) (B2U) (AG) (B1U) (B3U)
                 (B3G) (B2U) (AG) (AU) (B1U) (AG) (AG) (B2G) (B1U)
                 (B2U) (B1G) (AU) (B3G) (AG) (B1U) (B2U) (B3G)
                 (B3G) (B1U) (B2U) (B3G) (B3G) (B2U) (B1U) (B2U)
                 (AG) (AG) (B1U) (B3G) (B1U) (B2U) (AG) (B3G) (B3G)
                 (B2U) (B3G) (B1U) (B2U) (AG) (B1U) (B3G) (AG)
                 (B1U) (B2U) (B3G) (B3G) (B2U) (B1U) (B3G) (B2U)
                 (AG) (AG) (B1U) (B2U) (AG) (AG) (B3G) (B1U) (B2U)
                 (B3G) (B1U) (B3G) (B1U) (AG) (B2U) (B2U) (AG)
                 (B3G) (B1U) (AG) (B2U) (B1U) (B3G) (AG) (B2U)
                 (B3G) (B1U) (AG) (B2U) (B3G) (B1U) (B2U) (AG)
                 (B1U) (AG) (B3G) (B1U) (B2U) (B3G)
 The electronic state of the initial guess is 1-AG.
 Requested convergence on RMS density matrix=1.00D-08 within 128 cycles.
 Requested convergence on MAX density matrix=1.00D-06.
 Requested convergence on             energy=1.00D-06.
 No special actions if energy rises.
 Integral accuracy reduced to 1.0D-05 until final iterations.
 Initial convergence to 1.0D-05 achieved.  Increase integral accuracy.
 SCF Done:  E(RB3LYP) =  -1604.12516895     A.U. after   14 cycles
             Convg  =    0.9277D-08             -V/T =  2.0092

 **********************************************************************

            Population analysis using the SCF density.

 **********************************************************************

 Orbital symmetries:
       Occupied  (B1U) (AG) (AG) (B2U) (B3G) (B2U) (B1U) (AG) (B1U)
                 (B3G) (AG) (B2U) (B1U) (AG) (B3G) (B2U) (B1U)
                 (AG) (B3G) (B2U) (B3G) (B1U) (B2U) (AG) (B1U)
                 (AG) (B2U) (AG) (B3G) (B2U) (B3G) (B1U) (B2U)
                 (AG) (B3G) (B1U) (B2U) (AG) (B3G) (B1U) (AG) (B1U)
                 (B2U) (AG) (AG) (B1U) (B2U) (AG) (B3G) (B2U) (B1U)
                 (AG) (B1U) (B3G) (B2U) (AG) (B2U) (B3G) (B1U)
                 (AG) (B3G) (AG) (B2U) (B1U) (B1U) (B2U) (AG) (B3G)
                 (B2U) (AG) (B3G) (B1U) (B3G) (AG) (B1U) (B2U)
                 (AG) (B1U) (B2U) (AG) (B1U) (B3G) (B2U) (B3G)
                 (B1U) (AG) (B2U) (B3U) (AG) (B2G) (B3G) (AG) (B1U)
                 (B2U) (B3G) (B1U) (AG) (B2U) (B1G) (B1U) (B3U)
                 (AG) (B3G) (B2U) (B1U) (B3G) (B2U) (B3G) (B1U)
                 (B2G) (B3U) (AG) (B3G) (B1U) (B1G) (B2U) (AG)
                 (B3U) (AU) (B1G) (B2G) (AU) (B2U) (AG) (B3U) (B2G)
                 (AU) (B1G) (B3U) (B2G) (B1G) (B3U) (AU)
       Virtual   (B1G) (B2G) (B3U) (B2G) (AU) (B3U) (B1G) (AU)
                 (B1G) (B2G) (B3U) (AU) (AG) (B1U) (B2U) (AG) (B3G)
                 (AG) (B1U) (B2U) (B2G) (AG) (B1G) (B3G) (B2U)
                 (B3U) (B1U) (B3G) (B1U) (AG) (B2U) (B3G) (AG)
                 (AU) (B1G) (B2G) (AU) (B1U) (B2U) (B2U) (B3G)
                 (AG) (B1U) (B3G) (B1U) (B3G) (B2U) (B3G) (B1U)
                 (AG) (B3G) (B2U) (B1U) (AG) (B2U) (B1U) (AG) (AG)
                 (AG) (B2U) (B3G) (B1U) (B2U) (B1U) (AG) (B2U)
                 (AG) (B2U) (B1U) (B3G) (B3G) (B1U) (B3G) (AG)
                 (B2U) (B1U) (AG) (AG) (B2U) (B3G) (B1U) (B3U)
                 (B2G) (B2U) (B1U) (B3G) (AG) (B1G) (B3U) (B3G)
                 (AU) (B2U) (B1U) (B2G) (B1G) (B3G) (B3U) (AG)
                 (B2U) (B1U) (AG) (B3G) (B1U) (B2U) (B3U) (B2G)
                 (B1G) (AG) (B3G) (AU) (B1U) (B3G) (AG) (B2U) (B1U)
                 (AG) (B2U) (B1U) (B3G) (B2U) (AG) (B1U) (AG) (B2U)
                 (B3G) (AU) (B1G) (B2G) (B3U) (B2G) (B1U) (AG)
                 (B1G) (B3U) (B2U) (B3G) (AU) (B3G) (B3U) (B1U)
                 (AG) (B2U) (B2G) (B1G) (AU) (B3U) (B2G) (B1G)
                 (B3U) (AU) (AU) (B1G) (B2G) (B2U) (B3G) (B3U)
                 (B1U) (B2U) (AG) (AG) (AU) (B1G) (B3G) (B2G) (B2U)
                 (B3G) (B1U) (B2U) (B3G) (B2G) (B1U) (AG) (B1U)
                 (B2U) (AG) (B3G) (AU) (B1U) (B1G) (B3U) (AG) (B1U)
                 (B2U) (B3G) (AG) (B2U) (B3G) (AG) (B3G) (B1U)
                 (AG) (B2U) (B1U) (B2U) (AG) (B3G) (B2U) (B1U)
                 (B3G) (B3G) (AG) (B1U) (B2U) (AG) (B3G) (B1U)
                 (B2U) (AG) (B1U) (B2U) (B3G) (B3G) (B1U) (B3G)
                 (AG) (B2U) (B1U) (AG) (B1U) (B2U) (AG) (B3G) (B2U)
                 (B3G) (AG) (B3U) (B1U) (B2G) (B1U) (B2U) (AG)
                 (B1G) (B3U) (B2U) (B1U) (B3G) (B2G) (B3U) (AG)
                 (B1G) (B3G) (AU) (AG) (B3U) (B1G) (AU) (B2U) (B2G)
                 (AU) (B2G) (B2U) (B1G) (B1U) (B3G) (AG) (B1U)
                 (B3U) (B3G) (AG) (B2U) (B3G) (B2G) (B1U) (B2U)
                 (B3U) (B2G) (B3U) (B1G) (B3U) (AG) (B1G) (AU)
                 (B1U) (B3U) (B2G) (B1U) (B1G) (B2U) (AU) (B3G)
                 (AU) (B2G) (B1G) (B3U) (B3G) (AG) (B1U) (AG) (B2U)
                 (B3G) (AG) (B2U) (B1U) (AG) (B2U) (B1U) (AG) (B3G)
                 (AG) (B1U) (AU) (B2G) (B2U) (B1G) (B1U) (B2U)
                 (AU) (AG) (AG) (B3G) (B1U) (B3U) (B3G) (B2U) (AG)
                 (B1U) (AG) (B2U) (B1U) (B1G) (B2G) (AG) (B3G)
                 (B2U) (B3U) (B3G) (B1U) (B2U) (AG) (B1U) (B3G)
                 (AG) (B2U) (B2U) (B3G) (B1U) (AG) (B1U) (B3U)
                 (AG) (B3G) (B2U) (B2G) (AU) (B1G) (B1U) (B3U)
                 (AG) (B2U) (B1G) (B3G) (B2G) (B3G) (AG) (B1U)
                 (AU) (AG) (B2U) (B1U) (B2U) (B3G) (AU) (B1U) (B1G)
                 (B2G) (AG) (AU) (B3G) (B3U) (B1G) (B2U) (B2G)
                 (B1G) (B1U) (B3U) (AU) (B3G) (B2G) (B3U) (B2U)
                 (AG) (B3G) (AU) (B1U) (B3U) (B1G) (B2G) (B1U)
                 (AG) (B2U) (AU) (B1G) (B3G) (B2G) (B1U) (B2U)
                 (AG) (B3G) (B3G) (B2U) (B3U) (AU) (B1U) (AG) (B2G)
                 (AG) (B1G) (B2U) (B1U) (AU) (AG) (B3G) (AU) (B2G)
                 (B2U) (B1G) (B1U) (B3G) (B2U) (B3U) (B1U) (AG)
                 (B3G) (B1U) (AU) (AG) (B2U) (B2G) (AG) (B1G) (B1U)
                 (AG) (AU) (B2U) (B3G) (AG) (B2U) (B1U) (B3G) (B3G)
                 (B2U) (B1U) (B3G) (B3G) (B2U) (B1U) (AG) (B2U)
                 (B1U) (AG) (B3G) (B2U) (B3G) (B1U) (AG) (B3G)
                 (B2U) (B3G) (B1U) (B2U) (AG) (B1U) (B3G) (AG)
                 (B1U) (B2U) (B3G) (B3G) (B2U) (B1U) (B3G) (B2U)
                 (AG) (AG) (B1U) (AG) (B3G) (B2U) (AG) (B1U) (B2U)
                 (B3G) (B1U) (B3G) (B2U) (B1U) (AG) (B2U) (AG)
                 (B3G) (B1U) (AG) (B2U) (B1U) (B3G) (AG) (B2U)
                 (B3G) (AG) (B1U) (B2U) (B3G) (B1U) (AG) (B2U)
                 (B1U) (AG) (B3G) (B1U) (B2U) (B3G)
 The electronic state is 1-AG.
 Alpha  occ. eigenvalues --  -14.38398 -14.38398 -14.31191 -14.31190 -10.23350
 Alpha  occ. eigenvalues --  -10.23350 -10.23350 -10.23350 -10.21835 -10.21835
 Alpha  occ. eigenvalues --  -10.21835 -10.21835 -10.20202 -10.20202 -10.20202
 Alpha  occ. eigenvalues --  -10.20202 -10.20031 -10.20031 -10.19984 -10.19984
 Alpha  occ. eigenvalues --  -10.19970 -10.19970 -10.19970 -10.19970 -10.19183
 Alpha  occ. eigenvalues --  -10.19183 -10.19119 -10.19119 -10.19118 -10.19118
 Alpha  occ. eigenvalues --  -10.19118 -10.19118 -10.19018 -10.19018 -10.18972
 Alpha  occ. eigenvalues --  -10.18972 -10.18212 -10.18212 -10.18146 -10.18146
 Alpha  occ. eigenvalues --   -1.00732  -1.00652  -0.94688  -0.94563  -0.86315
 Alpha  occ. eigenvalues --   -0.86294  -0.84262  -0.84217  -0.81698  -0.80236
 Alpha  occ. eigenvalues --   -0.78474  -0.78024  -0.77887  -0.76288  -0.74432
 Alpha  occ. eigenvalues --   -0.74323  -0.74197  -0.74029  -0.73554  -0.73399
 Alpha  occ. eigenvalues --   -0.69865  -0.65862  -0.65857  -0.65813  -0.64560
 Alpha  occ. eigenvalues --   -0.61651  -0.61588  -0.60680  -0.59887  -0.58814
 Alpha  occ. eigenvalues --   -0.58724  -0.58307  -0.57061  -0.56463  -0.56294
 Alpha  occ. eigenvalues --   -0.53549  -0.52167  -0.51402  -0.51314  -0.50270
 Alpha  occ. eigenvalues --   -0.49913  -0.49726  -0.47598  -0.47268  -0.46512
 Alpha  occ. eigenvalues --   -0.45068  -0.44900  -0.44900  -0.44778  -0.44673
 Alpha  occ. eigenvalues --   -0.44489  -0.44409  -0.44212  -0.44090  -0.43858
 Alpha  occ. eigenvalues --   -0.43195  -0.42387  -0.41593  -0.41095  -0.41029
 Alpha  occ. eigenvalues --   -0.40601  -0.40572  -0.40433  -0.39937  -0.38262
 Alpha  occ. eigenvalues --   -0.38143  -0.36788  -0.36675  -0.35723  -0.35622
 Alpha  occ. eigenvalues --   -0.35591  -0.35377  -0.34847  -0.34175  -0.34079
 Alpha  occ. eigenvalues --   -0.33966  -0.33769  -0.33412  -0.32708  -0.29785
 Alpha  occ. eigenvalues --   -0.28582  -0.26983  -0.26401  -0.26319  -0.25918
 Alpha  occ. eigenvalues --   -0.25867  -0.24316  -0.24144  -0.23558  -0.23399
 Alpha  occ. eigenvalues --   -0.22900  -0.19009  -0.17189
 Alpha virt. eigenvalues --   -0.08052  -0.07981  -0.03142  -0.02292  -0.02197
 Alpha virt. eigenvalues --   -0.01149  -0.00990   0.03630   0.03770   0.04089
 Alpha virt. eigenvalues --    0.06749   0.07119   0.08408   0.08832   0.09129
 Alpha virt. eigenvalues --    0.09591   0.09831   0.10550   0.11378   0.11578
 Alpha virt. eigenvalues --    0.12033   0.12549   0.13247   0.14862   0.15308
 Alpha virt. eigenvalues --    0.15691   0.15824   0.16005   0.16641   0.16976
 Alpha virt. eigenvalues --    0.17109   0.17645   0.18329   0.18769   0.19593
 Alpha virt. eigenvalues --    0.19921   0.19963   0.20164   0.20517   0.21817
 Alpha virt. eigenvalues --    0.22403   0.22670   0.22966   0.23892   0.24177
 Alpha virt. eigenvalues --    0.25458   0.26132   0.26604   0.27301   0.27426
 Alpha virt. eigenvalues --    0.27788   0.27887   0.28462   0.28464   0.28914
 Alpha virt. eigenvalues --    0.29873   0.30275   0.31124   0.32497   0.32877
 Alpha virt. eigenvalues --    0.33322   0.34193   0.35208   0.35709   0.36695
 Alpha virt. eigenvalues --    0.37430   0.38480   0.39873   0.39934   0.39942
 Alpha virt. eigenvalues --    0.41288   0.43005   0.43018   0.44143   0.44158
 Alpha virt. eigenvalues --    0.44688   0.45804   0.47021   0.49236   0.49237
 Alpha virt. eigenvalues --    0.49919   0.49993   0.50283   0.50623   0.50767
 Alpha virt. eigenvalues --    0.50882   0.50981   0.51396   0.51996   0.52288
 Alpha virt. eigenvalues --    0.53663   0.53964   0.54186   0.54425   0.54591
 Alpha virt. eigenvalues --    0.54604   0.54622   0.55502   0.56032   0.56364
 Alpha virt. eigenvalues --    0.57044   0.57080   0.57102   0.57180   0.57888
 Alpha virt. eigenvalues --    0.57919   0.57978   0.58120   0.58446   0.58633
 Alpha virt. eigenvalues --    0.59211   0.59239   0.59318   0.59424   0.60206
 Alpha virt. eigenvalues --    0.60563   0.60733   0.60827   0.60847   0.60917
 Alpha virt. eigenvalues --    0.61110   0.61272   0.61313   0.61319   0.61609
 Alpha virt. eigenvalues --    0.61841   0.62337   0.62701   0.62913   0.63496
 Alpha virt. eigenvalues --    0.64108   0.64418   0.64797   0.64820   0.65067
 Alpha virt. eigenvalues --    0.65315   0.65792   0.65863   0.66081   0.66110
 Alpha virt. eigenvalues --    0.68628   0.68725   0.68956   0.69143   0.69426
 Alpha virt. eigenvalues --    0.71057   0.72179   0.72993   0.74279   0.74401
 Alpha virt. eigenvalues --    0.75043   0.75455   0.76233   0.77900   0.78422
 Alpha virt. eigenvalues --    0.79453   0.79481   0.79887   0.80311   0.81492
 Alpha virt. eigenvalues --    0.82163   0.82709   0.82886   0.83061   0.83504
 Alpha virt. eigenvalues --    0.83802   0.83813   0.84562   0.84787   0.84819
 Alpha virt. eigenvalues --    0.84902   0.85699   0.86587   0.86942   0.87281
 Alpha virt. eigenvalues --    0.87852   0.88132   0.88388   0.88713   0.89342
 Alpha virt. eigenvalues --    0.89637   0.89705   0.89871   0.89951   0.90466
 Alpha virt. eigenvalues --    0.90671   0.90853   0.91315   0.91516   0.92410
 Alpha virt. eigenvalues --    0.93617   0.94620   0.94636   0.95474   0.95766
 Alpha virt. eigenvalues --    0.96663   0.96923   0.97000   0.99308   0.99792
 Alpha virt. eigenvalues --    1.00613   1.00752   1.01208   1.02088   1.02758
 Alpha virt. eigenvalues --    1.03963   1.04170   1.07893   1.08244   1.09891
 Alpha virt. eigenvalues --    1.10250   1.11908   1.12094   1.12606   1.12685
 Alpha virt. eigenvalues --    1.12780   1.12783   1.15397   1.15796   1.15958
 Alpha virt. eigenvalues --    1.17344   1.17450   1.17511   1.18882   1.19399
 Alpha virt. eigenvalues --    1.19697   1.20697   1.20820   1.21063   1.21555
 Alpha virt. eigenvalues --    1.22562   1.22991   1.24738   1.24937   1.25672
 Alpha virt. eigenvalues --    1.27155   1.28160   1.28359   1.28525   1.28730
 Alpha virt. eigenvalues --    1.29721   1.29744   1.31458   1.31603   1.32798
 Alpha virt. eigenvalues --    1.32968   1.33468   1.34419   1.34697   1.36617
 Alpha virt. eigenvalues --    1.37115   1.38000   1.38047   1.38448   1.39845
 Alpha virt. eigenvalues --    1.40130   1.40260   1.42019   1.42496   1.42855
 Alpha virt. eigenvalues --    1.43142   1.43217   1.43552   1.43941   1.44494
 Alpha virt. eigenvalues --    1.45297   1.45394   1.45490   1.46017   1.46068
 Alpha virt. eigenvalues --    1.46330   1.46442   1.46992   1.47967   1.48652
 Alpha virt. eigenvalues --    1.48663   1.48725   1.48746   1.48797   1.49384
 Alpha virt. eigenvalues --    1.49789   1.49791   1.50412   1.50485   1.53734
 Alpha virt. eigenvalues --    1.55454   1.56929   1.63929   1.64270   1.66061
 Alpha virt. eigenvalues --    1.66187   1.67431   1.68409   1.69107   1.71801
 Alpha virt. eigenvalues --    1.72308   1.74139   1.74285   1.75432   1.77451
 Alpha virt. eigenvalues --    1.77972   1.78809   1.79107   1.79353   1.80419
 Alpha virt. eigenvalues --    1.80590   1.80840   1.81079   1.82156   1.82198
 Alpha virt. eigenvalues --    1.82390   1.83296   1.83784   1.84531   1.84679
 Alpha virt. eigenvalues --    1.85762   1.86039   1.87455   1.87545   1.87946
 Alpha virt. eigenvalues --    1.88070   1.88408   1.89533   1.91283   1.92389
 Alpha virt. eigenvalues --    1.92391   1.92633   1.92783   1.92975   1.93739
 Alpha virt. eigenvalues --    1.93766   1.94370   1.94526   1.99432   1.99475
 Alpha virt. eigenvalues --    1.99783   1.99982   2.02276   2.02444   2.02489
 Alpha virt. eigenvalues --    2.02735   2.03435   2.03996   2.04694   2.05054
 Alpha virt. eigenvalues --    2.05184   2.05875   2.06084   2.07452   2.07944
 Alpha virt. eigenvalues --    2.08139   2.08634   2.09966   2.10001   2.10254
 Alpha virt. eigenvalues --    2.10530   2.11313   2.11910   2.12013   2.17316
 Alpha virt. eigenvalues --    2.18174   2.18189   2.18430   2.18903   2.19758
 Alpha virt. eigenvalues --    2.20183   2.22305   2.22579   2.23795   2.24710
 Alpha virt. eigenvalues --    2.24833   2.25011   2.25231   2.25279   2.25551
 Alpha virt. eigenvalues --    2.25848   2.27456   2.27915   2.28084   2.28161
 Alpha virt. eigenvalues --    2.28370   2.28419   2.28921   2.29146   2.30418
 Alpha virt. eigenvalues --    2.30663   2.30742   2.33517   2.34257   2.34512
 Alpha virt. eigenvalues --    2.38087   2.39615   2.40049   2.41279   2.44433
 Alpha virt. eigenvalues --    2.44616   2.44621   2.45244   2.46566   2.47022
 Alpha virt. eigenvalues --    2.47339   2.49021   2.50721   2.52337   2.54836
 Alpha virt. eigenvalues --    2.56302   2.56757   2.57514   2.57602   2.57761
 Alpha virt. eigenvalues --    2.58336   2.58443   2.61349   2.61961   2.62508
 Alpha virt. eigenvalues --    2.62953   2.63548   2.64321   2.65117   2.65279
 Alpha virt. eigenvalues --    2.66105   2.67249   2.67632   2.68694   2.68980
 Alpha virt. eigenvalues --    2.69160   2.69533   2.70611   2.70817   2.71181
 Alpha virt. eigenvalues --    2.71205   2.71692   2.71828   2.72204   2.72779
 Alpha virt. eigenvalues --    2.74256   2.81512   2.82131   2.82195   2.83618
 Alpha virt. eigenvalues --    2.83689   2.84235   2.85952   2.88739   2.89264
 Alpha virt. eigenvalues --    2.89911   2.91659   2.91751   2.94120   2.95477
 Alpha virt. eigenvalues --    2.97226   3.02838   3.03915   3.04305   3.05253
 Alpha virt. eigenvalues --    3.08925   3.11195   3.14851   3.16151   3.20989
 Alpha virt. eigenvalues --    3.24812   3.25158   3.33679   3.34107   3.40175
 Alpha virt. eigenvalues --    3.42602   3.44481   3.46499   3.49772   3.50993
 Alpha virt. eigenvalues --    3.51406   4.05540   4.05770   4.06567   4.07886
 Alpha virt. eigenvalues --    4.08008   4.08951   4.08976   4.09050   4.09685
 Alpha virt. eigenvalues --    4.10387   4.11012   4.12408   4.15304   4.16398
 Alpha virt. eigenvalues --    4.16738   4.16988   4.22824   4.23849   4.24298
 Alpha virt. eigenvalues --    4.26886   4.27024   4.29436   4.30113   4.32509
 Alpha virt. eigenvalues --    4.41325   4.43059   4.45316   4.45503   4.46256
 Alpha virt. eigenvalues --    4.47196   4.49189   4.50210   4.57983   4.59131
 Alpha virt. eigenvalues --    4.66040   4.72446   4.79615   4.82960   4.83875
 Alpha virt. eigenvalues --    4.84812
          Condensed to atoms (all electrons):
 Mulliken atomic charges:
              1
     1  C    0.073001
     2  C    0.073001
     3  C    0.299688
     4  C    0.299688
     5  N   -0.698437
     6  C   -0.257564
     7  C    0.347302
     8  N   -0.795853
     9  C    0.347302
    10  C    0.073582
    11  C    0.073582
    12  C   -0.257564
    13  C    0.299688
    14  N   -0.698437
    15  C    0.073001
    16  C    0.073001
    17  C    0.347302
    18  N   -0.795853
    19  C    0.347302
    20  C    0.073582
    21  C    0.073582
    22  C   -0.257564
    23  C   -0.257564
    24  C    0.299688
    25  C   -0.200879
    26  C   -0.200879
    27  H    0.139937
    28  H    0.415778
    29  C   -0.189841
    30  C   -0.189841
    31  H    0.139937
    32  C   -0.200879
    33  C   -0.200879
    34  H    0.415778
    35  C   -0.189841
    36  C   -0.189841
    37  H    0.139937
    38  H    0.139937
    39  C   -0.137814
    40  C   -0.137814
    41  C   -0.137535
    42  C   -0.137535
    43  C   -0.137814
    44  C   -0.137814
    45  C   -0.137535
    46  C   -0.137535
    47  H    0.127990
    48  H    0.127990
    49  H    0.137869
    50  H    0.137869
    51  H    0.127990
    52  H    0.127990
    53  H    0.137869
    54  H    0.137869
    55  H    0.135045
    56  H    0.135045
    57  H    0.128476
    58  H    0.128476
    59  H    0.135045
    60  H    0.135045
    61  H    0.128476
    62  H    0.128476
 Sum of Mulliken atomic charges =   0.00000
 Mulliken charges with hydrogens summed into heavy atoms:
              1
     1  C    0.073001
     2  C    0.073001
     3  C    0.299688
     4  C    0.299688
     5  N   -0.698437
     6  C   -0.117627
     7  C    0.347302
     8  N   -0.380076
     9  C    0.347302
    10  C    0.073582
    11  C    0.073582
    12  C   -0.117627
    13  C    0.299688
    14  N   -0.698437
    15  C    0.073001
    16  C    0.073001
    17  C    0.347302
    18  N   -0.380076
    19  C    0.347302
    20  C    0.073582
    21  C    0.073582
    22  C   -0.117627
    23  C   -0.117627
    24  C    0.299688
    25  C   -0.072889
    26  C   -0.072889
    29  C   -0.051973
    30  C   -0.051973
    32  C   -0.072889
    33  C   -0.072889
    35  C   -0.051973
    36  C   -0.051973
    39  C   -0.002769
    40  C   -0.002769
    41  C   -0.009059
    42  C   -0.009059
    43  C   -0.002769
    44  C   -0.002769
    45  C   -0.009059
    46  C   -0.009059
 Sum of Mulliken charges with hydrogens summed into heavy atoms =   0.00000
 Electronic spatial extent (au):  <R**2>=          22907.6867
 Charge=              0.0000 electrons
 Dipole moment (field-independent basis, Debye):
    X=              0.0000    Y=              0.0000    Z=              0.0000  Tot=              0.0000
 Quadrupole moment (field-independent basis, Debye-Ang):
   XX=           -237.5391   YY=           -198.9941   ZZ=           -180.2128
   XY=              0.0000   XZ=              0.0000   YZ=              0.0000
 Traceless Quadrupole moment (field-independent basis, Debye-Ang):
   XX=            -31.9571   YY=              6.5879   ZZ=             25.3692
   XY=              0.0000   XZ=              0.0000   YZ=              0.0000
 Octapole moment (field-independent basis, Debye-Ang**2):
  XXX=              0.0000  YYY=              0.0000  ZZZ=              0.0000  XYY=              0.0000
  XXY=              0.0000  XXZ=              0.0000  XZZ=              0.0000  YZZ=              0.0000
  YYZ=              0.0000  XYZ=              0.0000
 Hexadecapole moment (field-independent basis, Debye-Ang**3):
 XXXX=           -241.7593 YYYY=         -14563.4611 ZZZZ=         -13525.3767 XXXY=              0.0000
 XXXZ=              0.0000 YYYX=              0.0000 YYYZ=              0.0000 ZZZX=              0.0000
 ZZZY=              0.0000 XXYY=          -2974.1822 XXZZ=          -2887.6440 YYZZ=          -4713.9931
 XXYZ=              0.0000 YYXZ=              0.0000 ZZXY=              0.0000
 N-N= 3.982044580338D+03 E-N=-1.168273110997D+04  KE= 1.589435544562D+03
 Symmetry AG   KE= 4.378534552312D+02
 Symmetry B1G  KE= 1.131411120931D+01
 Symmetry B2G  KE= 1.153828761904D+01
 Symmetry B3G  KE= 3.325104755578D+02
 Symmetry AU   KE= 9.214418165880D+00
 Symmetry B1U  KE= 3.850271484615D+02
 Symmetry B2U  KE= 3.855508328995D+02
 Symmetry B3U  KE= 1.642681541775D+01
 Calling FoFJK, ICntrl=      2127 FMM=F ISym2X=1 I1Cent= 0 IOpClX= 0 NMat=1 NMatS=1 NMatT=0.
 ***** Axes restored to original set *****
 -------------------------------------------------------------------
 Center     Atomic                   Forces (Hartrees/Bohr)
 Number     Number              X              Y              Z
 -------------------------------------------------------------------
      1        6          -0.003230919    0.036308490    0.000000000
      2        6          -0.003230919   -0.036308490    0.000000000
      3        6           0.003174286   -0.014275768    0.000000000
      4        6           0.003174286    0.014275768    0.000000000
      5        7           0.020709308    0.000000000    0.000000000
      6        6           0.017785860   -0.022104934    0.000000000
      7        6          -0.072878790   -0.043494885    0.000000000
      8        7           0.000000000   -0.008421627    0.000000000
      9        6           0.072878790   -0.043494885    0.000000000
     10        6          -0.023315042    0.035778470    0.000000000
     11        6           0.023315042    0.035778470    0.000000000
     12        6          -0.017785860   -0.022104934    0.000000000
     13        6          -0.003174286    0.014275768    0.000000000
     14        7          -0.020709308    0.000000000    0.000000000
     15        6           0.003230919   -0.036308490    0.000000000
     16        6           0.003230919    0.036308490    0.000000000
     17        6           0.072878790    0.043494885    0.000000000
     18        7           0.000000000    0.008421627    0.000000000
     19        6          -0.072878790    0.043494885    0.000000000
     20        6          -0.023315042   -0.035778470    0.000000000
     21        6           0.023315042   -0.035778470    0.000000000
     22        6           0.017785860    0.022104934    0.000000000
     23        6          -0.017785860    0.022104934    0.000000000
     24        6          -0.003174286   -0.014275768    0.000000000
     25        6          -0.012142174   -0.009003406    0.000000000
     26        6          -0.012142174    0.009003406    0.000000000
     27        1           0.001161952    0.001245835    0.000000000
     28        1           0.000000000    0.011754120    0.000000000
     29        6           0.007995944    0.022277425    0.000000000
     30        6          -0.007995944    0.022277425    0.000000000
     31        1          -0.001161952    0.001245835    0.000000000
     32        6           0.012142174    0.009003406    0.000000000
     33        6           0.012142174   -0.009003406    0.000000000
     34        1           0.000000000   -0.011754120    0.000000000
     35        6           0.007995944   -0.022277425    0.000000000
     36        6          -0.007995944   -0.022277425    0.000000000
     37        1           0.001161952   -0.001245835    0.000000000
     38        1          -0.001161952   -0.001245835    0.000000000
     39        6          -0.006373980   -0.017426480    0.000000000
     40        6           0.006373980   -0.017426480    0.000000000
     41        6          -0.011752809    0.001879127    0.000000000
     42        6          -0.011752809   -0.001879127    0.000000000
     43        6          -0.006373980    0.017426480    0.000000000
     44        6           0.006373980    0.017426480    0.000000000
     45        6           0.011752809   -0.001879127    0.000000000
     46        6           0.011752809    0.001879127    0.000000000
     47        1          -0.000733851    0.003793842    0.000000000
     48        1          -0.000733851   -0.003793842    0.000000000
     49        1          -0.002997281    0.000099473    0.000000000
     50        1           0.002997281    0.000099473    0.000000000
     51        1           0.000733851   -0.003793842    0.000000000
     52        1           0.000733851    0.003793842    0.000000000
     53        1          -0.002997281   -0.000099473    0.000000000
     54        1           0.002997281   -0.000099473    0.000000000
     55        1          -0.001437062    0.002179883    0.000000000
     56        1           0.001437062    0.002179883    0.000000000
     57        1           0.002751102   -0.001349685    0.000000000
     58        1           0.002751102    0.001349685    0.000000000
     59        1          -0.001437062   -0.002179883    0.000000000
     60        1           0.001437062   -0.002179883    0.000000000
     61        1          -0.002751102    0.001349685    0.000000000
     62        1          -0.002751102   -0.001349685    0.000000000
 -------------------------------------------------------------------
 Cartesian Forces:  Max     0.072878790 RMS     0.016727476

 GradGradGradGradGradGradGradGradGradGradGradGradGradGradGradGradGradGrad
 Berny optimization.
 Internal  Forces:  Max     0.046787549 RMS     0.008444075
 Search for a local minimum.
 Step number   1 out of a maximum of  372
 All quantities printed in internal units (Hartrees-Bohrs-Radians)
 Mixed Optimization -- RFO/linear search
 Second derivative matrix not updated -- first step.
 ITU=  0
     Eigenvalues ---    0.01617   0.01623   0.01633   0.01654   0.01751
     Eigenvalues ---    0.01751   0.01784   0.01785   0.01790   0.01791
     Eigenvalues ---    0.01791   0.01791   0.01793   0.01798   0.01799
     Eigenvalues ---    0.01877   0.01878   0.01962   0.01962   0.01963
     Eigenvalues ---    0.01963   0.01981   0.01982   0.01982   0.01982
     Eigenvalues ---    0.01983   0.01983   0.01985   0.01985   0.02023
     Eigenvalues ---    0.02023   0.02047   0.02048   0.02062   0.02062
     Eigenvalues ---    0.02062   0.02064   0.02064   0.02067   0.02067
     Eigenvalues ---    0.02077   0.02082   0.02082   0.02088   0.02088
     Eigenvalues ---    0.02098   0.02106   0.02121   0.02122   0.02181
     Eigenvalues ---    0.02228   0.02234   0.02235   0.02241   0.02269
     Eigenvalues ---    0.02270   0.02270   0.02280   0.02283   0.16000
     Eigenvalues ---    0.16000   0.16000   0.16000   0.16000   0.16000
     Eigenvalues ---    0.16000   0.16000   0.16000   0.16000   0.16000
     Eigenvalues ---    0.16000   0.16000   0.16000   0.16000   0.16000
     Eigenvalues ---    0.16000   0.16000   0.16000   0.16000   0.16000
     Eigenvalues ---    0.16000   0.22000   0.22000   0.22000   0.22000
     Eigenvalues ---    0.22000   0.22605   0.22605   0.22617   0.22617
     Eigenvalues ---    0.23176   0.23343   0.23346   0.23802   0.23813
     Eigenvalues ---    0.24541   0.24542   0.24542   0.24543   0.25000
     Eigenvalues ---    0.25000   0.25000   0.25000   0.25000   0.25000
     Eigenvalues ---    0.25000   0.25000   0.25000   0.25000   0.25000
     Eigenvalues ---    0.34196   0.34227   0.35575   0.35575   0.35575
     Eigenvalues ---    0.35575   0.35726   0.35726   0.35726   0.35726
     Eigenvalues ---    0.35756   0.35756   0.35756   0.35756   0.35836
     Eigenvalues ---    0.35836   0.35836   0.35836   0.35852   0.35852
     Eigenvalues ---    0.35852   0.35852   0.36115   0.36127   0.39556
     Eigenvalues ---    0.39698   0.40243   0.40319   0.41147   0.41155
     Eigenvalues ---    0.41369   0.41377   0.41386   0.41518   0.42001
     Eigenvalues ---    0.42001   0.42022   0.42163   0.42178   0.42178
     Eigenvalues ---    0.43101   0.43117   0.43141   0.43141   0.43799
     Eigenvalues ---    0.43868   0.44279   0.44290   0.44468   0.44498
     Eigenvalues ---    0.45277   0.45382   0.45382   0.45459   0.45665
     Eigenvalues ---    0.45704   0.45709   0.45709   0.46326   0.46495
     Eigenvalues ---    0.48130   0.48140   0.51204   0.51445   0.51857
     Eigenvalues ---    0.52135   0.52163   0.52170   0.52616   0.52669
 RFO step:  Lambda=-5.62724699D-02 EMin= 1.61706672D-02
 Linear search not attempted -- first point.
 Maximum step size (   0.300) exceeded in Quadratic search.
    -- Step size scaled by   0.843
 Iteration  1 RMS(Cart)=  0.03085867 RMS(Int)=  0.00022665
 Iteration  2 RMS(Cart)=  0.00057008 RMS(Int)=  0.00003614
 Iteration  3 RMS(Cart)=  0.00000025 RMS(Int)=  0.00003614
 ClnCor:  largest displacement from symmetrization is 1.24D-08 for atom    54.
 Variable       Old X    -DE/DX   Delta X   Delta X   Delta X     New X
                                 (Linear)    (Quad)   (Total)
    R1        2.59013   0.02445   0.00000   0.03991   0.03987   2.63000
    R2        2.76660   0.00418   0.00000   0.00893   0.00892   2.77553
    R3        2.63639   0.00191   0.00000   0.00421   0.00420   2.64060
    R4        2.76660   0.00418   0.00000   0.00893   0.00892   2.77553
    R5        2.63639   0.00191   0.00000   0.00421   0.00420   2.64060
    R6        2.56209   0.00902   0.00000   0.01167   0.01169   2.57377
    R7        2.68697  -0.02080   0.00000  -0.03666  -0.03666   2.65032
    R8        2.56209   0.00902   0.00000   0.01167   0.01169   2.57377
[...]
                 (AG) (B2U) (B1U) (B2U) (AG) (B3G) (B1U) (B2U)
                 (B3G) (B3G) (B2U) (AG) (B1U) (AG) (B3G) (B1U)
                 (B2U) (AG) (B1U) (B2U) (B3G) (B3G) (B3G) (B1U)
                 (B2U) (AG) (B1U) (B1U) (B2U) (AG) (AG) (B3G) (B2U)
                 (B3G) (AG) (B3U) (B1U) (B2U) (B2G) (B1U) (B1G)
                 (AG) (B2U) (B3U) (B1U) (B3G) (B2G) (AG) (B3U)
                 (B1G) (B3G) (AU) (AG) (B3U) (B1G) (AU) (B2U) (B2G)
                 (AU) (B1U) (B2U) (B1G) (B2G) (B3G) (B1U) (AG)
                 (B3G) (B3U) (AG) (B3G) (B2U) (B1U) (B2U) (B2G)
                 (B3U) (AG) (B3U) (B1G) (B2G) (B3U) (B1G) (B1U)
                 (AU) (B2U) (B3G) (B1U) (B3U) (B1G) (AU) (B2G)
                 (AU) (B2G) (B1G) (B3U) (B3G) (AG) (B1U) (AG) (B2U)
                 (B3G) (AG) (B2U) (B1U) (AG) (B1U) (B2U) (AG) (B3G)
                 (AU) (AG) (B1U) (B1G) (B2G) (B1U) (B2U) (AG) (AU)
                 (B2U) (B1U) (AG) (B3U) (B3G) (B3G) (AG) (B2U)
                 (B1U) (B2G) (AG) (B2U) (B1U) (B1G) (AG) (B3G)
                 (B2U) (AG) (B3G) (B2U) (B3U) (B1U) (B3G) (B1U)
                 (AG) (B2U) (B2U) (B1U) (B3G) (AG) (B3G) (B1U)
                 (B3U) (B2U) (AG) (B2G) (AU) (B1U) (B1G) (AG) (B3U)
                 (B2U) (B3G) (B1G) (B2G) (AG) (B3G) (AU) (B1U)
                 (B1U) (AG) (B2U) (B2U) (B3G) (B1U) (AU) (B2G)
                 (AG) (B1G) (B3G) (B2U) (AU) (B3U) (B1U) (B1G)
                 (B2G) (AU) (B1G) (AG) (B3U) (B3G) (B2G) (B2U)
                 (B3U) (AU) (B3G) (B1U) (B2G) (B3U) (B1G) (B1U)
                 (B2U) (AG) (AU) (B3G) (B1G) (B2G) (B2U) (B3G)
                 (B1U) (AG) (B2U) (B3G) (B3U) (AU) (B1U) (AG) (B1G)
                 (B2G) (AU) (AG) (B1U) (B3G) (B2U) (AU) (AG) (B1G)
                 (B1U) (B2U) (B2G) (B3G) (B2U) (B1U) (B3G) (B3U)
                 (AG) (AU) (B1U) (B2U) (AG) (B2G) (B1G) (AU) (AG)
                 (B1U) (B2U) (B3G) (AG) (AG) (B2U) (B3G) (B1U)
                 (B2U) (B3G) (B1U) (B3G) (B2U) (B1U) (B3G) (AG)
                 (B2U) (B1U) (AG) (B3G) (B3G) (B2U) (B1U) (AG)
                 (B3G) (B2U) (B1U) (B3G) (AG) (B1U) (B2U) (B3G)
                 (AG) (B2U) (B1U) (B3G) (B3G) (B2U) (B1U) (B3G)
                 (AG) (B2U) (AG) (B1U) (AG) (B2U) (AG) (B1U) (B3G)
                 (B2U) (B3G) (B1U) (B3G) (B2U) (B1U) (AG) (B2U)
                 (AG) (B3G) (B1U) (AG) (B2U) (B1U) (B3G) (AG) (B2U)
                 (AG) (B1U) (B3G) (B1U) (B2U) (B3G) (AG) (B2U)
                 (B1U) (AG) (B3G) (B2U) (B1U) (B3G)
 The electronic state is 1-AG.
 Alpha  occ. eigenvalues --  -14.38128 -14.38127 -14.31417 -14.31417 -10.23831
 Alpha  occ. eigenvalues --  -10.23831 -10.23831 -10.23831 -10.21854 -10.21853
 Alpha  occ. eigenvalues --  -10.21853 -10.21853 -10.20253 -10.20253 -10.20215
 Alpha  occ. eigenvalues --  -10.20215 -10.20166 -10.20166 -10.20158 -10.20158
 Alpha  occ. eigenvalues --  -10.19872 -10.19872 -10.19824 -10.19824 -10.19586
 Alpha  occ. eigenvalues --  -10.19586 -10.19586 -10.19586 -10.19242 -10.19242
 Alpha  occ. eigenvalues --  -10.19241 -10.19241 -10.18972 -10.18972 -10.18921
 Alpha  occ. eigenvalues --  -10.18921 -10.18681 -10.18681 -10.18630 -10.18630
 Alpha  occ. eigenvalues --   -0.99042  -0.98923  -0.94370  -0.94164  -0.85890
 Alpha  occ. eigenvalues --   -0.85881  -0.84355  -0.84308  -0.82106  -0.80271
 Alpha  occ. eigenvalues --   -0.79054  -0.77136  -0.76940  -0.76352  -0.74842
 Alpha  occ. eigenvalues --   -0.74454  -0.74349  -0.74310  -0.73945  -0.73939
 Alpha  occ. eigenvalues --   -0.70136  -0.65923  -0.65732  -0.65139  -0.64282
 Alpha  occ. eigenvalues --   -0.61668  -0.61650  -0.60673  -0.59751  -0.58737
 Alpha  occ. eigenvalues --   -0.58641  -0.58303  -0.57238  -0.56185  -0.56052
 Alpha  occ. eigenvalues --   -0.53585  -0.51914  -0.51526  -0.50799  -0.50192
 Alpha  occ. eigenvalues --   -0.49980  -0.49115  -0.47426  -0.47375  -0.46345
 Alpha  occ. eigenvalues --   -0.45248  -0.45205  -0.44821  -0.44609  -0.44325
 Alpha  occ. eigenvalues --   -0.44189  -0.44146  -0.44066  -0.43914  -0.43535
 Alpha  occ. eigenvalues --   -0.43011  -0.41498  -0.41407  -0.41026  -0.41020
 Alpha  occ. eigenvalues --   -0.40970  -0.40288  -0.40287  -0.39891  -0.38052
 Alpha  occ. eigenvalues --   -0.37872  -0.36700  -0.36378  -0.35758  -0.35702
 Alpha  occ. eigenvalues --   -0.35642  -0.35179  -0.35080  -0.34316  -0.34156
 Alpha  occ. eigenvalues --   -0.33584  -0.33559  -0.33428  -0.33102  -0.29678
 Alpha  occ. eigenvalues --   -0.28912  -0.27147  -0.26837  -0.26824  -0.25395
 Alpha  occ. eigenvalues --   -0.25350  -0.24772  -0.24496  -0.23761  -0.23406
 Alpha  occ. eigenvalues --   -0.22995  -0.19417  -0.17253
 Alpha virt. eigenvalues --   -0.08322  -0.07770  -0.02674  -0.02262  -0.01774
 Alpha virt. eigenvalues --   -0.01100  -0.00971   0.03280   0.03447   0.03846
 Alpha virt. eigenvalues --    0.06284   0.07712   0.08343   0.08756   0.09059
 Alpha virt. eigenvalues --    0.09814   0.10153   0.10848   0.11044   0.11304
 Alpha virt. eigenvalues --    0.11981   0.12183   0.13508   0.14476   0.14925
 Alpha virt. eigenvalues --    0.15376   0.15662   0.16057   0.16211   0.16732
 Alpha virt. eigenvalues --    0.17121   0.17608   0.18010   0.18022   0.18959
 Alpha virt. eigenvalues --    0.19633   0.19658   0.19761   0.19927   0.21604
 Alpha virt. eigenvalues --    0.21726   0.22665   0.22859   0.23170   0.24006
 Alpha virt. eigenvalues --    0.25055   0.25575   0.25958   0.27059   0.27076
 Alpha virt. eigenvalues --    0.27335   0.27462   0.27904   0.28596   0.29071
 Alpha virt. eigenvalues --    0.30248   0.30529   0.31463   0.32544   0.33031
 Alpha virt. eigenvalues --    0.33169   0.33624   0.34971   0.35243   0.36322
 Alpha virt. eigenvalues --    0.37238   0.37458   0.39338   0.39776   0.40223
 Alpha virt. eigenvalues --    0.41091   0.42194   0.42272   0.43510   0.44534
 Alpha virt. eigenvalues --    0.44893   0.45724   0.47268   0.48217   0.48458
 Alpha virt. eigenvalues --    0.49895   0.50080   0.50108   0.50420   0.51286
 Alpha virt. eigenvalues --    0.51360   0.51406   0.51444   0.51682   0.51946
 Alpha virt. eigenvalues --    0.53561   0.53971   0.54159   0.54419   0.54520
 Alpha virt. eigenvalues --    0.54529   0.55375   0.55450   0.55493   0.55558
 Alpha virt. eigenvalues --    0.56522   0.56767   0.56786   0.57308   0.57680
 Alpha virt. eigenvalues --    0.57852   0.57866   0.58006   0.58193   0.58551
 Alpha virt. eigenvalues --    0.58683   0.58897   0.58901   0.59158   0.59592
 Alpha virt. eigenvalues --    0.60009   0.60465   0.60689   0.60798   0.60961
 Alpha virt. eigenvalues --    0.61136   0.61240   0.61452   0.61526   0.61589
 Alpha virt. eigenvalues --    0.61631   0.62169   0.62545   0.63176   0.63454
 Alpha virt. eigenvalues --    0.63875   0.63925   0.64184   0.64443   0.64609
 Alpha virt. eigenvalues --    0.64780   0.65123   0.65782   0.65830   0.65908
 Alpha virt. eigenvalues --    0.68838   0.68895   0.68973   0.69041   0.69401
 Alpha virt. eigenvalues --    0.71117   0.72282   0.73032   0.74324   0.74836
 Alpha virt. eigenvalues --    0.74929   0.75970   0.76137   0.78291   0.78693
 Alpha virt. eigenvalues --    0.79555   0.79644   0.79768   0.80117   0.81003
 Alpha virt. eigenvalues --    0.82149   0.82266   0.82594   0.82931   0.83301
 Alpha virt. eigenvalues --    0.83384   0.83448   0.83934   0.84157   0.84243
 Alpha virt. eigenvalues --    0.85061   0.85228   0.85948   0.86139   0.86729
 Alpha virt. eigenvalues --    0.86770   0.87707   0.87786   0.88540   0.89054
 Alpha virt. eigenvalues --    0.89071   0.89108   0.89207   0.89586   0.89787
 Alpha virt. eigenvalues --    0.89836   0.90065   0.90616   0.91581   0.92008
 Alpha virt. eigenvalues --    0.92808   0.94038   0.94123   0.94378   0.95078
 Alpha virt. eigenvalues --    0.96082   0.96589   0.96717   0.98643   1.00288
 Alpha virt. eigenvalues --    1.00435   1.00475   1.01051   1.01827   1.02912
 Alpha virt. eigenvalues --    1.03203   1.04177   1.07646   1.07959   1.09166
 Alpha virt. eigenvalues --    1.09905   1.10848   1.11323   1.11761   1.12140
 Alpha virt. eigenvalues --    1.12590   1.12864   1.15260   1.15355   1.16713
 Alpha virt. eigenvalues --    1.17015   1.17695   1.18806   1.18985   1.20418
 Alpha virt. eigenvalues --    1.20466   1.20702   1.21187   1.21803   1.21912
 Alpha virt. eigenvalues --    1.22827   1.23128   1.24467   1.24829   1.25121
 Alpha virt. eigenvalues --    1.27065   1.27864   1.27980   1.28171   1.28404
 Alpha virt. eigenvalues --    1.28785   1.28839   1.31214   1.32238   1.32249
 Alpha virt. eigenvalues --    1.32277   1.32623   1.33767   1.33984   1.36285
 Alpha virt. eigenvalues --    1.36382   1.37612   1.37838   1.38684   1.39462
 Alpha virt. eigenvalues --    1.39560   1.41008   1.41931   1.42028   1.42538
 Alpha virt. eigenvalues --    1.42717   1.42819   1.43335   1.44064   1.44107
 Alpha virt. eigenvalues --    1.45201   1.45233   1.45315   1.45578   1.45902
 Alpha virt. eigenvalues --    1.46175   1.46276   1.47108   1.47436   1.47937
 Alpha virt. eigenvalues --    1.48025   1.48345   1.48943   1.49014   1.49272
 Alpha virt. eigenvalues --    1.49922   1.49947   1.50235   1.50505   1.52563
 Alpha virt. eigenvalues --    1.56145   1.57677   1.64431   1.64876   1.65000
 Alpha virt. eigenvalues --    1.66313   1.68228   1.68801   1.71300   1.71625
 Alpha virt. eigenvalues --    1.73032   1.73426   1.74693   1.76131   1.76330
 Alpha virt. eigenvalues --    1.76342   1.76829   1.77868   1.78022   1.78195
 Alpha virt. eigenvalues --    1.79061   1.79436   1.80068   1.80389   1.80691
 Alpha virt. eigenvalues --    1.81831   1.82092   1.82227   1.82767   1.84019
 Alpha virt. eigenvalues --    1.85178   1.85996   1.86412   1.86993   1.87141
 Alpha virt. eigenvalues --    1.87793   1.88073   1.88322   1.89527   1.91028
 Alpha virt. eigenvalues --    1.91129   1.91329   1.91438   1.91684   1.92162
 Alpha virt. eigenvalues --    1.92195   1.93492   1.93521   1.98103   1.98858
 Alpha virt. eigenvalues --    1.99076   1.99230   2.01313   2.01504   2.01957
 Alpha virt. eigenvalues --    2.02291   2.02374   2.04133   2.04439   2.04983
 Alpha virt. eigenvalues --    2.05289   2.05485   2.06480   2.06708   2.07311
 Alpha virt. eigenvalues --    2.07666   2.08293   2.10271   2.10366   2.10421
 Alpha virt. eigenvalues --    2.11489   2.12375   2.12929   2.13088   2.16025
 Alpha virt. eigenvalues --    2.17499   2.18048   2.18053   2.18300   2.18976
 Alpha virt. eigenvalues --    2.19913   2.22307   2.22954   2.22998   2.23003
 Alpha virt. eigenvalues --    2.24588   2.24593   2.25354   2.25528   2.25682
 Alpha virt. eigenvalues --    2.25759   2.26304   2.26750   2.26855   2.26896
 Alpha virt. eigenvalues --    2.27198   2.27550   2.27615   2.28223   2.29551
 Alpha virt. eigenvalues --    2.31646   2.32042   2.33266   2.33303   2.33554
 Alpha virt. eigenvalues --    2.37712   2.37744   2.40067   2.40129   2.42574
 Alpha virt. eigenvalues --    2.43071   2.43622   2.44290   2.44996   2.45122
 Alpha virt. eigenvalues --    2.46351   2.50285   2.50627   2.52058   2.53972
 Alpha virt. eigenvalues --    2.54430   2.54977   2.55666   2.57418   2.57813
 Alpha virt. eigenvalues --    2.58565   2.58691   2.60299   2.61393   2.62643
 Alpha virt. eigenvalues --    2.62731   2.62893   2.63611   2.64312   2.66059
 Alpha virt. eigenvalues --    2.67484   2.67529   2.67540   2.67612   2.69350
 Alpha virt. eigenvalues --    2.69391   2.69483   2.70302   2.70346   2.70962
 Alpha virt. eigenvalues --    2.70995   2.71789   2.72184   2.72296   2.72306
 Alpha virt. eigenvalues --    2.74532   2.80109   2.80526   2.82396   2.82930
 Alpha virt. eigenvalues --    2.83353   2.84091   2.84311   2.86918   2.88634
 Alpha virt. eigenvalues --    2.89004   2.91010   2.91340   2.94356   2.94558
 Alpha virt. eigenvalues --    2.96698   3.00569   3.01544   3.02063   3.03577
 Alpha virt. eigenvalues --    3.07808   3.09897   3.14846   3.15454   3.23072
 Alpha virt. eigenvalues --    3.23189   3.23207   3.31105   3.34857   3.36094
 Alpha virt. eigenvalues --    3.40548   3.41185   3.45048   3.49635   3.50280
 Alpha virt. eigenvalues --    3.50698   4.04687   4.05281   4.06648   4.08019
 Alpha virt. eigenvalues --    4.08459   4.09296   4.09471   4.09550   4.09678
 Alpha virt. eigenvalues --    4.10123   4.11034   4.11776   4.15899   4.17423
 Alpha virt. eigenvalues --    4.17453   4.17833   4.22001   4.23098   4.23501
 Alpha virt. eigenvalues --    4.26906   4.27288   4.29709   4.29791   4.32714
 Alpha virt. eigenvalues --    4.39490   4.43104   4.44410   4.44956   4.45584
 Alpha virt. eigenvalues --    4.46370   4.47265   4.49599   4.55562   4.59486
 Alpha virt. eigenvalues --    4.65662   4.73611   4.78207   4.81709   4.82743
 Alpha virt. eigenvalues --    4.83427
          Condensed to atoms (all electrons):
 Mulliken atomic charges:
              1
     1  C    0.071413
     2  C    0.071413
     3  C    0.304342
     4  C    0.304342
     5  N   -0.693034
     6  C   -0.261299
     7  C    0.369723
     8  N   -0.802879
     9  C    0.369723
    10  C    0.048582
    11  C    0.048582
    12  C   -0.261299
    13  C    0.304342
    14  N   -0.693034
    15  C    0.071413
    16  C    0.071413
    17  C    0.369723
    18  N   -0.802879
    19  C    0.369723
    20  C    0.048582
    21  C    0.048582
    22  C   -0.261299
    23  C   -0.261299
    24  C    0.304342
    25  C   -0.199392
    26  C   -0.199392
    27  H    0.138628
    28  H    0.409372
    29  C   -0.187704
    30  C   -0.187704
    31  H    0.138628
    32  C   -0.199392
    33  C   -0.199392
    34  H    0.409372
    35  C   -0.187704
    36  C   -0.187704
    37  H    0.138628
    38  H    0.138628
    39  C   -0.135640
    40  C   -0.135640
    41  C   -0.135213
    42  C   -0.135213
    43  C   -0.135640
    44  C   -0.135640
    45  C   -0.135213
    46  C   -0.135213
    47  H    0.129243
    48  H    0.129243
    49  H    0.137992
    50  H    0.137992
    51  H    0.129243
    52  H    0.129243
    53  H    0.137992
    54  H    0.137992
    55  H    0.134274
    56  H    0.134274
    57  H    0.128321
    58  H    0.128321
    59  H    0.134274
    60  H    0.134274
    61  H    0.128321
    62  H    0.128321
 Sum of Mulliken atomic charges =   0.00000
 Mulliken charges with hydrogens summed into heavy atoms:
              1
     1  C    0.071413
     2  C    0.071413
     3  C    0.304342
     4  C    0.304342
     5  N   -0.693034
     6  C   -0.122671
     7  C    0.369723
     8  N   -0.393507
     9  C    0.369723
    10  C    0.048582
    11  C    0.048582
    12  C   -0.122671
    13  C    0.304342
    14  N   -0.693034
    15  C    0.071413
    16  C    0.071413
    17  C    0.369723
    18  N   -0.393507
    19  C    0.369723
    20  C    0.048582
    21  C    0.048582
    22  C   -0.122671
    23  C   -0.122671
    24  C    0.304342
    25  C   -0.070150
    26  C   -0.070150
    29  C   -0.049712
    30  C   -0.049712
    32  C   -0.070150
    33  C   -0.070150
    35  C   -0.049712
    36  C   -0.049712
    39  C   -0.001365
    40  C   -0.001365
    41  C   -0.006892
    42  C   -0.006892
    43  C   -0.001365
    44  C   -0.001365
    45  C   -0.006892
    46  C   -0.006892
 Sum of Mulliken charges with hydrogens summed into heavy atoms =   0.00000
 Electronic spatial extent (au):  <R**2>=          23140.8797
 Charge=              0.0000 electrons
 Dipole moment (field-independent basis, Debye):
    X=              0.0000    Y=              0.0000    Z=              0.0000  Tot=              0.0000
 Quadrupole moment (field-independent basis, Debye-Ang):
   XX=           -237.8508   YY=           -197.0108   ZZ=           -180.2480
   XY=              0.0000   XZ=              0.0000   YZ=              0.0000
 Traceless Quadrupole moment (field-independent basis, Debye-Ang):
   XX=            -32.8143   YY=              8.0257   ZZ=             24.7886
   XY=              0.0000   XZ=              0.0000   YZ=              0.0000
 Octapole moment (field-independent basis, Debye-Ang**2):
  XXX=              0.0000  YYY=              0.0000  ZZZ=              0.0000  XYY=              0.0000
  XXY=              0.0000  XXZ=              0.0000  XZZ=              0.0000  YZZ=              0.0000
  YYZ=              0.0000  XYZ=              0.0000
 Hexadecapole moment (field-independent basis, Debye-Ang**3):
 XXXX=           -242.1643 YYYY=         -14446.7604 ZZZZ=         -13864.7663 XXXY=              0.0000
 XXXZ=              0.0000 YYYX=              0.0000 YYYZ=              0.0000 ZZZX=              0.0000
 ZZZY=              0.0000 XXYY=          -2961.4359 XXZZ=          -2961.5439 YYZZ=          -4760.8239
 XXYZ=              0.0000 YYXZ=              0.0000 ZZXY=              0.0000
 N-N= 3.962985838150D+03 E-N=-1.164420955882D+04  KE= 1.588860105891D+03
 Symmetry AG   KE= 4.376917747359D+02
 Symmetry B1G  KE= 1.130429766336D+01
 Symmetry B2G  KE= 1.152732453605D+01
 Symmetry B3G  KE= 3.324074453232D+02
 Symmetry AU   KE= 9.209269315675D+00
 Symmetry B1U  KE= 3.849186586750D+02
 Symmetry B2U  KE= 3.853772839232D+02
 Symmetry B3U  KE= 1.642405171903D+01

 Test job not archived.
 1\1\GINC-TERMINUS\FOpt\RB3LYP\6-31G(d)\C36H22N4\FRODOX\04-Jan-2018\0\\
 #B3LYP/6-31G* fopt test\\RotationSameMolecule/Tetrabenzoporphyrin.xyz\
 \0,1\C,-4.2891484313,0.704179567,0.\C,-4.2891484313,-0.704179567,0.\C,
 -2.8768978596,-1.0977672404,0.\C,-2.8768978596,1.0977672404,0.\N,-2.06
 89404133,0.,0.\C,-2.4454793723,2.4283697841,0.\C,-1.1438894566,2.91046
 04535,0.\N,0.,2.1491127331,0.\C,1.1438894566,2.9104604535,0.\C,-0.7088
 882428,4.2913381437,0.\C,0.7088882428,4.2913381437,0.\C,2.4454793723,2
 .4283697841,0.\C,2.8768978596,1.0977672404,0.\N,2.0689404133,0.,0.\C,4
 .2891484313,-0.704179567,0.\C,4.2891484313,0.704179567,0.\C,1.14388945
 66,-2.9104604535,0.\N,0.,-2.1491127331,0.\C,-1.1438894566,-2.910460453
 5,0.\C,-0.7088882428,-4.2913381437,0.\C,0.7088882428,-4.2913381437,0.\
 C,-2.4454793723,-2.4283697841,0.\C,2.4454793723,-2.4283697841,0.\C,2.8
 768978596,-1.0977672404,0.\C,-5.4898520146,1.4183672631,0.\C,-5.489852
 0146,-1.4183672631,0.\H,-3.2222141035,3.1871787053,0.\H,0.,1.132807222
 5,0.\C,-1.420753625,5.4996280041,0.\C,1.420753625,5.4996280041,0.\H,3.
 2222141035,3.1871787053,0.\C,5.4898520146,-1.4183672631,0.\C,5.4898520
 146,1.4183672631,0.\H,0.,-1.1328072225,0.\C,-1.420753625,-5.4996280041
 ,0.\C,1.420753625,-5.4996280041,0.\H,-3.2222141035,-3.1871787053,0.\H,
 3.2222141035,-3.1871787053,0.\C,-0.7055999912,6.6891793456,0.\C,0.7055
 999912,6.6891793456,0.\C,6.6863203312,-0.7027832063,0.\C,6.6863203312,
 0.7027832063,0.\C,-0.7055999912,-6.6891793456,0.\C,0.7055999912,-6.689
 1793456,0.\C,-6.6863203312,0.7027832063,0.\C,-6.6863203312,-0.70278320
 63,0.\H,-5.5028082128,2.505443068,0.\H,-5.5028082128,-2.505443068,0.\H
 ,-2.5072246949,5.5097134764,0.\H,2.5072246949,5.5097134764,0.\H,5.5028
 082128,-2.505443068,0.\H,5.5028082128,2.505443068,0.\H,-2.5072246949,-
 5.5097134764,0.\H,2.5072246949,-5.5097134764,0.\H,-1.2375454768,7.6364
 293409,0.\H,1.2375454768,7.6364293409,0.\H,7.6327652246,-1.2367539091,
 0.\H,7.6327652246,1.2367539091,0.\H,-1.2375454768,-7.6364293409,0.\H,1
 .2375454768,-7.6364293409,0.\H,-7.6327652246,1.2367539091,0.\H,-7.6327
 652246,-1.2367539091,0.\\Version=EM64L-G09RevB.01\State=1-AG\HF=-1604.
 1579393\RMSD=5.451e-09\RMSF=5.363e-05\Dipole=0.,0.,0.\Quadrupole=5.966
 9463,18.4296841,-24.3966304,0.,0.,0.\PG=D02H [C2'(N1.N1),C2"(N1H1.H1N1
 ),SG(C36H20)]\\@


 ASKING FOR EFFICIENCY AND ADAPTABILITY IN THE SAME PROGRAM IS LIKE
 ASKING FOR A BEAUTIFUL AND MODEST WIFE ...
 WE'LL PROBABLY HAVE TO SETTLE FOR ONE OR THE OTHER.

             -- THE PSYCHOLOGY OF COMPUTER PROGRAMMING
                GERALD M. WEINBERG
 Job cpu time:  0 days  0 hours 19 minutes 59.9 seconds.
 File lengths (MBytes):  RWF=    271 Int=      0 D2E=      0 Chk=     27 Scr=      1
 Normal termination of Gaussian 09 at Thu Jan  4 15:20:10 2018.
